# vtk DataFile Version 3.0
 vtk output
ASCII
DATASET POLYDATA
POINTS 17 float
0.0 0.0 0.0
-0.20512032349645792 0.0 0.5904159136511585
-0.3734681701311644 0.0 1.1923433321935517
-0.4658941378065178 0.0 1.8104850920699032
-0.44107559267161944 0.0 2.434986106673771
-0.2613631562443288 0.0 3.0335585801117624
0.09351096726748587 0.0 3.5479652110654074
0.6079127669045925 0.0 3.9028012037712094
1.2174862705818006 0.0 4.040712603497718
1.827594583814819 0.0 3.905181301793223
2.344330595025278 0.0 3.553748097599734
2.7050097551385637 0.0 3.0433904201059088
2.8948881538149696 0.0 2.447961033430691
2.933867746564088 0.0 1.8241809338499988
2.8584972264225383 0.0 1.203726550961358
2.7089327884358543 0.0 0.5968576546878684
2.5233863205048586 0.0 0.0
LINES 16 48
2
0
1
2
1
2
2
2
3
2
3
4
2
4
5
2
5
6
2
6
7
2
7
8
2
8
9
2
9
10
2
10
11
2
11
12
2
12
13
2
13
14
2
14
15
2
15
16

 POINT_DATA 17
 SCALARS u float 3
 LOOKUP_TABLE default
0.0 0.0 0.0
-0.8301203234964579 0.0 0.5904159136511585
-1.6234681701311644 0.0 1.1923433321935517
-2.340894137806518 0.0 1.8104850920699032
-2.9410755926716194 0.0 2.434986106673771
-3.386363156244329 0.0 3.0335585801117624
-3.656489032732514 0.0 3.5479652110654074
-3.7670872330954075 0.0 3.9028012037712094
-3.7825137294181994 0.0 4.030712603497718
-3.797405416185181 0.0 3.905181301793223
-3.905669404974722 0.0 3.553748097599734
-4.169990244861436 0.0 3.0433904201059088
-4.6051118461850304 0.0 2.447961033430691
-5.191132253435912 0.0 1.8241809338499988
-5.891502773577462 0.0 1.203726550961358
-6.666067211564146 0.0 0.5968576546878684
-7.476613679495141 0.0 0.0