# vtk DataFile Version 3.0
 vtk output
ASCII
DATASET POLYDATA
POINTS 17 float
0.0 0.0 0.0
0.285569289275672 0.0 0.5559036082603896
0.5931238123370086 0.0 1.0999493927712618
0.9426699097866788 0.0 1.6180105114067984
1.3498929548153038 0.0 2.0920687539281957
1.8233912353379984 0.0 2.4999315090081087
2.3619815952094023 0.0 2.816892088392415
2.953169483172002 0.0 3.019458237908827
3.572939731292175 0.0 3.100185030320889
4.193083262370969 0.0 3.022380178045808
4.785027154695318 0.0 2.822036408909339
5.324257707074777 0.0 2.5061683646505606
5.797690137188447 0.0 2.098231063311525
6.203762645378532 0.0 1.623188519422058
6.551022916441056 0.0 1.1035938166859736
6.855399248241427 0.0 0.5577648732970362
7.1373133042702 0.0 0.0
LINES 16 48
2
0
1
2
1
2
2
2
3
2
3
4
2
4
5
2
5
6
2
6
7
2
7
8
2
8
9
2
9
10
2
10
11
2
11
12
2
12
13
2
13
14
2
14
15
2
15
16

 POINT_DATA 17
 SCALARS u float 3
 LOOKUP_TABLE default
0.0 0.0 0.0
-0.339430710724328 0.0 0.5559036082603896
-0.6568761876629914 0.0 1.0999493927712618
-0.9323300902133212 0.0 1.6180105114067984
-1.1501070451846962 0.0 2.0920687539281957
-1.3016087646620016 0.0 2.4999315090081087
-1.3880184047905977 0.0 2.816892088392415
-1.421830516827998 0.0 3.019458237908827
-1.4270602687078249 0.0 3.0901850303208893
-1.431916737629031 0.0 3.022380178045808
-1.4649728453046815 0.0 2.822036408909339
-1.550742292925223 0.0 2.5061683646505606
-1.7023098628115534 0.0 2.098231063311525
-1.921237354621468 0.0 1.623188519422058
-2.198977083558944 0.0 1.1035938166859736
-2.5196007517585732 0.0 0.5577648732970362
-2.8626866957298 0.0 0.0