# vtk DataFile Version 3.0
 vtk output
ASCII
DATASET POLYDATA
POINTS 17 float
0.0 0.0 0.0
0.624974983179583 0.0 0.00014364101359078783
1.24994996687158 0.0 0.000285045030563702
1.8749249515567257 0.0 0.0004220099980152531
2.4998999376543884 0.0 0.0005524030896230938
3.124874925496731 0.0 0.0006741937334191566
3.7498499153082885 0.0 0.0007854849155982965
4.37482490719219 0.0 0.0008845424572067822
4.999798958514397 0.0 0.010943445698163344
5.6247730098549855 0.0 0.0008845424887597294
6.249748001792502 0.0 0.0007854849443715737
6.874722991693433 0.0 0.0006741937355937665
7.49969797966095 0.0 0.0005524030657636399
8.12467296591964 0.0 0.0004220099603794749
8.749647950801732 0.0 0.00028504499431308497
9.374622934726675 0.0 0.0001436409916465535
9.999597918175294 0.0 0.0
LINES 16 48
2
0
1
2
1
2
2
2
3
2
3
4
2
4
5
2
5
6
2
6
7
2
7
8
2
8
9
2
9
10
2
10
11
2
11
12
2
12
13
2
13
14
2
14
15
2
15
16

 POINT_DATA 17
 SCALARS u float 3
 LOOKUP_TABLE default
0.0 0.0 0.0
-2.5016820416986533e-5 0.0 0.00014364101359078783
-5.0033128419949046e-5 0.0 0.000285045030563702
-7.504844327436138e-5 0.0 0.0004220099980152531
-0.00010006234561147622 0.0 0.0005524030896230938
-0.00012507450326888528 0.0 0.0006741937334191566
-0.00015008469171161486 0.0 0.0007854849155982965
-0.00017509280780985016 0.0 0.0008845424572067822
-0.000201041485603236 0.0 0.0009434456981633441
-0.00022699014501432907 0.0 0.0008845424887597294
-0.0002519982074985262 0.0 0.0007854849443715737
-0.00027700830656698987 0.0 0.0006741937355937665
-0.000302020339050183 0.0 0.0005524030657636399
-0.0003270340803598304 0.0 0.0004220099603794749
-0.00035204919826793295 0.0 0.00028504499431308497
-0.00037706527332497615 0.0 0.0001436409916465535
-0.00040208182470549724 0.0 0.0