# vtk DataFile Version 3.0
 vtk output
ASCII
DATASET POLYDATA
POINTS 17 float
0.0 0.0 0.0
0.6247060653023735 0.0 0.01700715045044171
1.249429328001995 0.0 0.03337034435435696
1.874184405681743 0.0 0.04846994898349087
2.498981142941208 0.0 0.06173407733698351
3.123823133735289 0.0 0.0726602341751319
3.7487071810609667 0.0 0.08083436909103903
4.3736237754522795 0.0 0.08594660662042826
4.998530056302534 0.0 0.09773711519201762
5.623436339690522 0.0 0.0859467540068923
6.24835293439174 0.0 0.08083464314433861
6.87323698164834 0.0 0.07266059547683949
7.498078971343141 0.0 0.06173447266910864
8.122875705878728 0.0 0.04847031861249827
8.74763077888207 0.0 0.03337063063580739
9.372354035035734 0.0 0.017007306915483106
9.99706009244906 0.0 0.0
LINES 16 48
2
0
1
2
1
2
2
2
3
2
3
4
2
4
5
2
5
6
2
6
7
2
7
8
2
8
9
2
9
10
2
10
11
2
11
12
2
12
13
2
13
14
2
14
15
2
15
16

 POINT_DATA 17
 SCALARS u float 3
 LOOKUP_TABLE default
0.0 0.0 0.0
-0.00029393469762647274 0.0 0.01700715045044171
-0.0005706719980048756 0.0 0.03337034435435696
-0.0008155943182570927 0.0 0.04846994898349087
-0.0010188570587919374 0.0 0.06173407733698351
-0.001176866264711176 0.0 0.0726602341751319
-0.001292818939033403 0.0 0.08083436909103903
-0.0013762245477205494 0.0 0.08594660662042826
-0.001469943697466025 0.0 0.08773711519201763
-0.0015636603094779837 0.0 0.0859467540068923
-0.0016470656082599937 0.0 0.08083464314433861
-0.0017630183516598233 0.0 0.07266059547683949
-0.0019210286568594934 0.0 0.06173447266910864
-0.0021242941212708034 0.0 0.04847031861249827
-0.002369221117929589 0.0 0.03337063063580739
-0.002645964964265597 0.0 0.017007306915483106
-0.0029399075509409893 0.0 0.0