# vtk DataFile Version 3.0
 vtk output
ASCII
DATASET POLYDATA
POINTS 17 float
0.0 0.0 0.0
-0.34896242058604854 0.0 0.5185948393581912
-0.6638912763804623 0.0 1.0585270643075162
-0.9054727600453054 0.0 1.6350053769242947
-1.0261040928555283 0.0 2.248280919048408
-0.9735377688405595 0.0 2.871058801792013
-0.7077215708726277 0.0 3.4366589408382784
-0.23255740065695552 0.0 3.8425251524408552
0.3732672266028212 0.0 3.9959872346349194
0.9742066973015575 0.0 3.8243914661666953
1.4364721730288261 0.0 3.40389501478373
1.6833810838581638 0.0 2.8297907454213433
1.7138564367395217 0.0 2.2055432100780994
1.5702996568833667 0.0 1.5972266957484809
1.306302243546062 0.0 1.0306638857225876
0.9698424011109434 0.0 0.5038799744305299
0.5999505039302608 0.0 0.0
LINES 16 48
2
0
1
2
1
2
2
2
3
2
3
4
2
4
5
2
5
6
2
6
7
2
7
8
2
8
9
2
9
10
2
10
11
2
11
12
2
12
13
2
13
14
2
14
15
2
15
16

 POINT_DATA 17
 SCALARS u float 3
 LOOKUP_TABLE default
0.0 0.0 0.0
-0.9739624205860485 0.0 0.5185948393581912
-1.9138912763804623 0.0 1.0585270643075162
-2.7804727600453054 0.0 1.6350053769242947
-3.5261040928555283 0.0 2.248280919048408
-4.0985377688405595 0.0 2.871058801792013
-4.457721570872628 0.0 3.4366589408382784
-4.6075574006569555 0.0 3.8425251524408552
-4.626732773397179 0.0 3.9859872346349197
-4.6507933026984425 0.0 3.8243914661666953
-4.813527826971174 0.0 3.40389501478373
-5.191618916141836 0.0 2.8297907454213433
-5.786143563260478 0.0 2.2055432100780994
-6.554700343116633 0.0 1.5972266957484809
-7.443697756453938 0.0 1.0306638857225876
-8.405157598889057 0.0 0.5038799744305299
-9.40004949606974 0.0 0.0