# vtk DataFile Version 3.0
 vtk output
ASCII
DATASET POLYDATA
POINTS 17 float
0.0 0.0 0.0
0.6249874974287001 0.0 5.083966944119107e-5
1.24997499489215 0.0 0.00010129768854015306
1.874962492424257 0.0 0.0001509942087292125
2.4999499900572544 0.0 0.00019955306931034036
3.124937487820889 0.0 0.0002466038808503746
3.7499249857416337 0.0 0.0002917844693392738
4.374912483841939 0.0 0.0003347439031526837
4.999899546104274 0.0 0.010361940745992447
5.624886608398255 0.0 0.0003347439622362639
6.249874106590636 0.0 0.0002917845194484454
6.874861604664842 0.0 0.00024660387064714517
7.49984910264334 0.0 0.00019955299628706484
8.12483660055263 0.0 0.0001509941005398058
8.749824098422483 0.0 0.0001012975849366025
9.374811596285166 0.0 5.0839606849557997e-5
9.999799094174623 0.0 0.0
LINES 16 48
2
0
1
2
1
2
2
2
3
2
3
4
2
4
5
2
5
6
2
6
7
2
7
8
2
8
9
2
9
10
2
10
11
2
11
12
2
12
13
2
13
14
2
14
15
2
15
16

 POINT_DATA 17
 SCALARS u float 3
 LOOKUP_TABLE default
0.0 0.0 0.0
-1.2502571299877602e-5 0.0 5.083966944119107e-5
-2.5005107850077852e-5 0.0 0.00010129768854015306
-3.750757574311654e-5 0.0 0.0001509942087292125
-5.0009942745555004e-5 0.0 0.00019955306931034036
-6.251217911083349e-5 0.0 0.0002466038808503746
-7.501425836652197e-5 0.0 0.0002917844693392738
-8.751615806091912e-5 0.0 0.0003347439031526837
-0.00010045389572653661 0.0 0.00036194074599244636
-0.00011339160174501573 0.0 0.0003347439622362639
-0.0001258934093635983 0.0 0.0002917845194484454
-0.00013839533515846918 0.0 0.00024660387064714517
-0.00015089735665945375 0.0 0.00019955299628706484
-0.00016339944737074754 0.0 0.0001509941005398058
-0.00017590157751731276 0.0 0.0001012975849366025
-0.00018840371483437812 0.0 5.0839606849557997e-5
-0.00020090582537603168 0.0 0.0