# vtk DataFile Version 3.0
 vtk output
ASCII
DATASET POLYDATA
POINTS 17 float
0.0 0.0 0.0
0.625 0.0 0.0
1.25 0.0 0.0
1.875 0.0 0.0
2.5 0.0 0.0
3.125 0.0 0.0
3.75 0.0 0.0
4.375 0.0 0.0
5.0 0.0 0.01
5.625 0.0 0.0
6.25 0.0 0.0
6.875 0.0 0.0
7.5 0.0 0.0
8.125 0.0 0.0
8.75 0.0 0.0
9.375 0.0 0.0
10.0 0.0 0.0
LINES 16 48
2
0
1
2
1
2
2
2
3
2
3
4
2
4
5
2
5
6
2
6
7
2
7
8
2
8
9
2
9
10
2
10
11
2
11
12
2
12
13
2
13
14
2
14
15
2
15
16

 POINT_DATA 17
 SCALARS u float 3
 LOOKUP_TABLE default
0.0 0.0 0.0
0.0 0.0 0.0
0.0 0.0 0.0
0.0 0.0 0.0
0.0 0.0 0.0
0.0 0.0 0.0
0.0 0.0 0.0
0.0 0.0 0.0
0.0 0.0 0.0
0.0 0.0 0.0
0.0 0.0 0.0
0.0 0.0 0.0
0.0 0.0 0.0
0.0 0.0 0.0
0.0 0.0 0.0
0.0 0.0 0.0
0.0 0.0 0.0