# vtk DataFile Version 3.0
 vtk output
ASCII
DATASET POLYDATA
POINTS 17 float
0.0 0.0 0.0
0.6249624065251083 0.0 0.0003415309919441859
1.249924817356267 0.0 0.0006750906320741484
1.8748872363998719 0.0 0.0009928937666049238
2.499849666800161 0.0 0.0012875232169111408
3.1248121106475324 0.0 0.0015521028396698101
3.749774568784725 0.0 0.0017804578249332164
4.374737040728774 0.0 0.001967258561437192
4.999697905615517 0.0 0.012068630868780954
5.624658770509816 0.0 0.0019672585588061523
6.249621242476654 0.0 0.001780457810425083
6.874583700651853 0.0 0.001552102810729276
7.499546144552488 0.0 0.0012875231800650794
8.124508575021348 0.0 0.0009928937303674847
8.749470994148899 0.0 0.0006750906035724003
9.37443340507946 0.0 0.00034153097621773506
9.999395811719513 0.0 0.0
LINES 16 48
2
0
1
2
1
2
2
2
3
2
3
4
2
4
5
2
5
6
2
6
7
2
7
8
2
8
9
2
9
10
2
10
11
2
11
12
2
12
13
2
13
14
2
14
15
2
15
16

 POINT_DATA 17
 SCALARS u float 3
 LOOKUP_TABLE default
0.0 0.0 0.0
-3.7593474891725896e-5 0.0 0.0003415309919441859
-7.518264373316816e-5 0.0 0.0006750906320741484
-0.0001127636001281998 0.0 0.0009928937666049238
-0.00015033319983880677 0.0 0.0012875232169111408
-0.0001878893524674851 0.0 0.0015521028396698101
-0.00022543121527479645 0.0 0.0017804578249332164
-0.00026295927122656687 0.0 0.001967258561437192
-0.00030209438448298797 0.0 0.002068630868780954
-0.0003412294901840897 0.0 0.0019672585588061523
-0.0003787575233461591 0.0 0.001780457810425083
-0.0004162993481462581 0.0 0.001552102810729276
-0.00045385544751255866 0.0 0.0012875231800650794
-0.0004914249786508523 0.0 0.0009928937303674847
-0.000529005851100459 0.0 0.0006750906035724003
-0.0005665949205408672 0.0 0.00034153097621773506
-0.0006041882804864903 0.0 0.0