# vtk DataFile Version 3.0
 vtk output
ASCII
DATASET POLYDATA
POINTS 17 float
0.0 0.0 0.0
0.01017403448441967 0.0 0.6249179209160061
0.0533953110749783 0.0 1.2484179222091645
0.16219983767562018 0.0 1.863861470290807
0.3664765132377741 0.0 2.4545084713785745
0.6884204143508721 0.0 2.9901619201823184
1.1345687181120714 0.0 3.427771814844378
1.6876333438350706 0.0 3.7187204830944927
2.3021647556032954 0.0 3.832611739964091
2.9174964810374653 0.0 3.723132616023115
3.471878251075085 0.0 3.434707028065947
3.917970982137944 0.0 2.997045249219754
4.236731156568497 0.0 2.4594950150831916
4.4339779233803585 0.0 1.8664662889439312
4.532240042057412 0.0 1.2492537769208547
4.562378618316639 0.0 0.6249857953819062
4.558160401679471 0.0 0.0
LINES 16 48
2
0
1
2
1
2
2
2
3
2
3
4
2
4
5
2
5
6
2
6
7
2
7
8
2
8
9
2
9
10
2
10
11
2
11
12
2
12
13
2
13
14
2
14
15
2
15
16

 POINT_DATA 17
 SCALARS u float 3
 LOOKUP_TABLE default
0.0 0.0 0.0
-0.6148259655155803 0.0 0.6249179209160061
-1.1966046889250217 0.0 1.2484179222091645
-1.7128001623243798 0.0 1.863861470290807
-2.133523486762226 0.0 2.4545084713785745
-2.436579585649128 0.0 2.9901619201823184
-2.6154312818879286 0.0 3.427771814844378
-2.6873666561649294 0.0 3.7187204830944927
-2.6978352443967046 0.0 3.822611739964091
-2.7075035189625347 0.0 3.723132616023115
-2.778121748924915 0.0 3.434707028065947
-2.957029017862056 0.0 2.997045249219754
-3.2632688434315034 0.0 2.4594950150831916
-3.6910220766196415 0.0 1.8664662889439312
-4.217759957942588 0.0 1.2492537769208547
-4.812621381683361 0.0 0.6249857953819062
-5.441839598320529 0.0 0.0