# vtk DataFile Version 3.0
 vtk output
ASCII
DATASET POLYDATA
POINTS 17 float
0.0 0.0 0.0
-0.27948553804527954 0.0 0.5590859551341435
-0.5232032390051722 0.0 1.1346577620558058
-0.6915702606575458 0.0 1.7365853356460579
-0.7399037225459586 0.0 2.3597234294701654
-0.6234229440771122 0.0 2.9737529409496757
-0.31267941470267235 0.0 3.515965569171847
0.18183700309730888 0.0 3.898022973559793
0.7890222133269642 0.0 4.04605882552872
1.3955567745597826 0.0 3.8953806595220732
1.8881425897803306 0.0 3.5108386268984892
2.195516213473704 0.0 2.9667096762566607
2.3073445557456207 0.0 2.3518167428844436
2.253481798470692 0.0 1.7291329049343134
2.0791400335544106 0.0 1.1289090724801736
1.8292964338768964 0.0 0.555970095443417
1.5436632690932832 0.0 0.0
LINES 16 48
2
0
1
2
1
2
2
2
3
2
3
4
2
4
5
2
5
6
2
6
7
2
7
8
2
8
9
2
9
10
2
10
11
2
11
12
2
12
13
2
13
14
2
14
15
2
15
16

 POINT_DATA 17
 SCALARS u float 3
 LOOKUP_TABLE default
0.0 0.0 0.0
-0.9044855380452795 0.0 0.5590859551341435
-1.7732032390051722 0.0 1.1346577620558058
-2.566570260657546 0.0 1.7365853356460579
-3.2399037225459586 0.0 2.3597234294701654
-3.748422944077112 0.0 2.9737529409496757
-4.062679414702672 0.0 3.515965569171847
-4.193162996902691 0.0 3.898022973559793
-4.210977786673036 0.0 4.036058825528721
-4.2294432254402174 0.0 3.8953806595220732
-4.361857410219669 0.0 3.5108386268984892
-4.679483786526296 0.0 2.9667096762566607
-5.192655444254379 0.0 2.3518167428844436
-5.871518201529308 0.0 1.7291329049343134
-6.670859966445589 0.0 1.1289090724801736
-7.545703566123104 0.0 0.555970095443417
-8.456336730906717 0.0 0.0