# vtk DataFile Version 3.0
 vtk output
ASCII
DATASET POLYDATA
POINTS 17 float
0.0 0.0 0.0
0.624949240178023 0.0 0.0009745020108842977
1.249898526794863 0.0 0.001918751158988666
1.8748479005678353 0.0 0.002803433493975285
2.4997973914760565 0.0 0.003601083755527571
3.124747015066551 0.0 0.004286937780554849
3.749696770538209 0.0 0.00483970108356451
4.374646640839646 0.0 0.005242209769231548
4.999593612241614 0.0 0.015429340510443972
5.624540583646159 0.0 0.005242209758918893
6.249490453955823 0.0 0.004839701061988078
6.874440209441216 0.0 0.004286937750271654
7.499389833050981 0.0 0.003601083722135158
8.124339323984048 0.0 0.0028034334630612653
8.749288697787485 0.0 0.0019187511351325386
9.374237984440466 0.0 0.000974501997721404
9.99918722466037 0.0 0.0
LINES 16 48
2
0
1
2
1
2
2
2
3
2
3
4
2
4
5
2
5
6
2
6
7
2
7
8
2
8
9
2
9
10
2
10
11
2
11
12
2
12
13
2
13
14
2
14
15
2
15
16

 POINT_DATA 17
 SCALARS u float 3
 LOOKUP_TABLE default
0.0 0.0 0.0
-5.075982197699965e-5 0.0 0.0009745020108842977
-0.00010147320513698071 0.0 0.001918751158988666
-0.0001520994321647457 0.0 0.002803433493975285
-0.0002026085239435503 0.0 0.003601083755527571
-0.00025298493344930824 0.0 0.004286937780554849
-0.0003032294617911605 0.0 0.00483970108356451
-0.00035335916035463607 0.0 0.005242209769231548
-0.0004063877583859291 0.0 0.005429340510443971
-0.00045941635384113514 0.0 0.005242209758918893
-0.0005095460441767483 0.0 0.004839701061988078
-0.0005597905587839271 0.0 0.004286937750271654
-0.0006101669490189153 0.0 0.003601083722135158
-0.0006606760159517483 0.0 0.0028034334630612653
-0.0007113022125148284 0.0 0.0019187511351325386
-0.0007620155595344377 0.0 0.000974501997721404
-0.0008127753396300067 0.0 0.0