# vtk DataFile Version 4.2
 vtk output
ASCII
DATASET STRUCTURED_POINTS
DIMENSIONS 18 18 18
SPACING 0.0075 0.0075 0.0075
ORIGIN -0.0649937 -0.0649937 -0.065
POINT_DATA  5832
SCALARS u float 1
LOOKUP_TABLE default
0.06259294599294662 0.058437515050172806 0.054655447602272034 0.05127802491188049 0.048360612243413925 0.045954830944538116 0.04408179968595505 0.042764730751514435 0.04206258803606033 0.04196791723370552 0.04247475042939186 0.04357988387346268 0.045264244079589844 0.047516386955976486 0.050257112830877304 0.05347062274813652 0.05712466314435005 0.06116430088877678 0.058437515050172806 0.05411438271403313 0.05016523599624634 0.04662930220365524 0.04358185827732086 0.04103700444102287 0.03906532749533653 0.03768574818968773 0.036932773888111115 0.03682440146803856 0.037360258400440216 0.03854110836982727 0.04032338038086891 0.04267098382115364 0.04556684568524361 0.048931580036878586 0.05274634808301926 0.056950055062770844 0.054655443876981735 0.05016523599624634 0.04605396091938019 0.042363930493593216 0.03916770964860916 0.036493100225925446 0.03440725430846214 0.03295052796602249 0.03216691315174103 0.032049376517534256 0.03261258453130722 0.033864863216876984 0.035745490342378616 0.038219135254621506 0.04125402495265007 0.04477497562766075 0.048751045018434525 0.05311669036746025 0.051278021186590195 0.04662930592894554 0.042363934218883514 0.03854126110672951 0.03517927601933479 0.03238426521420479 0.030194567516446114 0.028665484860539436 0.02782500721514225 0.02770267240703106 0.028311319649219513 0.029616381973028183 0.031599629670381546 0.034200288355350494 0.03735707327723503 0.04105312377214432 0.04518021270632744 0.04970315471291542 0.048360612243413925 0.04358185455203056 0.03916770964860916 0.03517927601933479 0.03171062096953392 0.028782585635781288 0.026491522789001465 0.02488253451883793 0.023998333141207695 0.02387091889977455 0.024502525106072426 0.02587496116757393 0.027948834002017975 0.030661871656775475 0.03398013859987259 0.037790268659591675 0.042063433676958084 0.04673509672284126 0.045954830944538116 0.041037000715732574 0.036493100225925446 0.03238426521420479 0.028782585635781288 0.025748224928975105 0.02335556410253048 0.021679887548089027 0.020756211131811142 0.02062910795211792 0.02129068784415722 0.022719867527484894 0.024884188547730446 0.027708521112799644 0.03113730251789093 0.03508427366614342 0.03949083015322685 0.044294197112321854 0.04408179596066475 0.03906532749533653 0.03440725430846214 0.030194567516446114 0.026491522789001465 0.02335556410253048 0.02088799513876438 0.019144244492053986 0.018194211646914482 0.018057944253087044 0.018746312707662582 0.020229874178767204 0.02246668003499508 0.025382809340953827 0.028907429426908493 0.03296433016657829 0.03747826814651489 0.042368773370981216 0.042764730751514435 0.03768574446439743 0.03295052796602249 0.028665484860539436 0.024882538244128227 0.021679889410734177 0.019144244492053986 0.01736600697040558 0.01638411357998848 0.016238613054156303 0.01694873534142971 0.018466882407665253 0.020762547850608826 0.023749154061079025 0.02734365686774254 0.03148018568754196 0.03607932850718498 0.04104739800095558 0.04206258803606033 0.036932773888111115 0.03216691315174103 0.02782500721514225 0.023998335003852844 0.020756211131811142 0.018194211646914482 0.01638411357998848 0.01538884174078703 0.01524481363594532 0.015961384400725365 0.01750880293548107 0.01982739381492138 0.022855011746287346 0.026494508609175682 0.030671793967485428 0.03530975803732872 0.04032515361905098 0.04196791723370552 0.03682440146803856 0.032049376517534256 0.02770267054438591 0.02387091889977455 0.02062910795211792 0.018057944253087044 0.016238613054156303 0.01524481363594532 0.015101386234164238 0.015813687816262245 0.01736976020038128 0.019698062911629677 0.022726457566022873 0.026372134685516357 0.030551830306649208 0.0351959690451622 0.04022408276796341 0.04247475042939186 0.037360258400440216 0.03261258453130722 0.028311319649219513 0.024502525106072426 0.02129068598151207 0.01874631457030773 0.01694873534142971 0.015961384400725365 0.015813687816262245 0.01652776449918747 0.0180636178702116 0.020365310832858086 0.023366758599877357 0.026981333270668983 0.031139006838202477 0.03574449568986893 0.040748242288827896 0.04357988014817238 0.03854110464453697 0.03386486694216728 0.029616383835673332 0.02587496116757393 0.022719867527484894 0.020229876041412354 0.018466882407665253 0.01750880293548107 0.01736976020038128 0.0180636215955019 0.019564693793654442 0.021816158667206764 0.024759601801633835 0.028319871053099632 0.03240104764699936 0.03693368658423424 0.04187539964914322 0.045264244079589844 0.04032338038086891 0.03574548661708832 0.031599629670381546 0.027948834002017975 0.024884188547730446 0.02246668003499508 0.020762547850608826 0.01982739381492138 0.019698064774274826 0.020365310832858086 0.021816160529851913 0.02400786802172661 0.026867762207984924 0.030321070924401283 0.034314509481191635 0.03875730559229851 0.04358553886413574 0.04751638323068619 0.04267098382115364 0.038219135254621506 0.034200288355350494 0.030661871656775475 0.027708521112799644 0.02538280561566353 0.023749154061079025 0.022855015471577644 0.022726457566022873 0.023366758599877357 0.024759601801633835 0.026867762207984924 0.02962767705321312 0.032961729913949966 0.03683672472834587 0.041163068264722824 0.045869238674640656 0.050257112830877304 0.04556684568524361 0.04125402867794037 0.03735707327723503 0.03398013859987259 0.03113730251789093 0.028907429426908493 0.02734365686774254 0.026494508609175682 0.026372134685516357 0.026981333270668983 0.028319871053099632 0.030321070924401283 0.032961729913949966 0.03619099035859108 0.03990401700139046 0.04408703371882439 0.04865549877285957 0.05347062274813652 0.048931580036878586 0.04477497190237045 0.041053127497434616 0.037790268659591675 0.03508427366614342 0.03296433016657829 0.03148018568754196 0.030671793967485428 0.030551832169294357 0.031139006838202477 0.03240104764699936 0.034314509481191635 0.03683672472834587 0.03990401700139046 0.043497562408447266 0.04752379655838013 0.05194167420268059 0.05712466314435005 0.05274634808301926 0.048751045018434525 0.04518021270632744 0.042063433676958084 0.03949083015322685 0.03747826814651489 0.03607932850718498 0.03530975803732872 0.0351959690451622 0.03574449568986893 0.03693368658423424 0.03875730559229851 0.04116307199001312 0.04408703371882439 0.04752379655838013 0.05139311030507088 0.05565108731389046 0.06116430088877678 0.056950055062770844 0.05311669036746025 0.04970315471291542 0.04673509672284126 0.044294193387031555 0.042368773370981216 0.04104739800095558 0.04032515361905098 0.04022408276796341 0.040748246014118195 0.04187539964914322 0.04358553886413574 0.045869238674640656 0.04865549877285957 0.05194167420268059 0.05565108358860016 0.059745002537965775 0.05843706056475639 0.05411310866475105 0.050167497247457504 0.046635814011096954 0.043575968593358994 0.041042402386665344 0.03906518965959549 0.0376729890704155 0.03693212941288948 0.036831606179475784 0.037367746233940125 0.03853370621800423 0.04031578078866005 0.042686015367507935 0.04556342959403992 0.0489310584962368 0.05274954065680504 0.056956466287374496 0.05411311239004135 0.04960263520479202 0.045467477291822433 0.041750431060791016 0.03853603079915047 0.035842008888721466 0.03375062718987465 0.03227975592017174 0.0314796045422554 0.03136422485113144 0.03193390741944313 0.03319147601723671 0.03508519381284714 0.0375746414065361 0.040634531527757645 0.044175468385219574 0.04817599430680275 0.05256804823875427 0.050167497247457504 0.045467477291822433 0.04114658385515213 0.037250712513923645 0.03385983034968376 0.03100886568427086 0.02877899445593357 0.027213487774133682 0.02637392282485962 0.026246828958392143 0.026852857321500778 0.028196044266223907 0.030208803713321686 0.03284783661365509 0.03607317805290222 0.03979826346039772 0.04398709908127785 0.048562780022621155 0.046635814011096954 0.041750431060791016 0.037250712513923645 0.03319164365530014 0.029602719470858574 0.0266084223985672 0.024246957153081894 0.02259545587003231 0.02167649194598198 0.021542932838201523 0.022208385169506073 0.023619147017598152 0.025760522112250328 0.02855696715414524 0.03192972391843796 0.035859741270542145 0.04022757336497307 0.04498405382037163 0.043575968593358994 0.03853603079915047 0.03385983034968376 0.029602719470858574 0.025880534201860428 0.02272234857082367 0.02022782526910305 0.01846878044307232 0.017506591975688934 0.017364297062158585 0.01806134358048439 0.019560199230909348 0.02181178890168667 0.02475215494632721 0.028320079669356346 0.032390207052230835 0.036932285875082016 0.041861630976200104 0.041042402386665344 0.035842008888721466 0.03100886568427086 0.0266084223985672 0.02272235043346882 0.019424254074692726 0.016800202429294586 0.01495516300201416 0.013936325907707214 0.013790234923362732 0.014523354358971119 0.016099853441119194 0.01847059093415737 0.021549876779317856 0.025261180475354195 0.029502253979444504 0.03420344740152359 0.039289992302656174 0.03906518593430519 0.03375062346458435 0.02877899445593357 0.024246957153081894 0.0202278234064579 0.016800202429294586 0.014086912386119366 0.012151124887168407 0.011084684170782566 0.010934331454336643 0.011702005751430988 0.013353941962122917 0.015816878527402878 0.019022628664970398 0.02285640686750412 0.02722879871726036 0.03205930069088936 0.0372551754117012 0.0376729890704155 0.03227975592017174 0.027213487774133682 0.02259545400738716 0.01846878044307232 0.014955159276723862 0.012151125818490982 0.010161538608372211 0.009057622402906418 0.008897683583199978 0.009693865664303303 0.011396500281989574 0.013943610712885857 0.017228424549102783 0.02115926705300808 0.02563082054257393 0.030566398054361343 0.03585320711135864 0.03693212941288948 0.0314796008169651 0.02637391909956932 0.02167649194598198 0.017506590113043785 0.013936325907707214 0.011084684170782566 0.009057622402906418 0.00793510116636753 0.007771586999297142 0.008578759618103504 0.01032064575701952 0.012904605828225613 0.016252504661679268 0.0202304869890213 0.024763349443674088 0.029742563143372536 0.035087067633867264 0.03683160990476608 0.03136422485113144 0.026246825233101845 0.021542932838201523 0.017364295199513435 0.013790235854685307 0.010934331454336643 0.008897684514522552 0.007771586999297142 0.007609904278069735 0.008424168452620506 0.010165717452764511 0.012756077572703362 0.01610776036977768 0.020095834508538246 0.024634767323732376 0.029621288180351257 0.034980058670043945 0.037367746233940125 0.03193390741944313 0.026852857321500778 0.022208383306860924 0.01806134544312954 0.014523354358971119 0.011702008545398712 0.009693869389593601 0.008578759618103504 0.008424165658652782 0.009223086759448051 0.010940872132778168 0.01349920779466629 0.016812704503536224 0.020766329020261765 0.02526300959289074 0.030207330361008644 0.03553583845496178 0.03853370621800423 0.03319147601723671 0.028196044266223907 0.023619147017598152 0.019560199230909348 0.016099851578474045 0.013353941962122917 0.011396500281989574 0.01032064575701952 0.010165716521441936 0.010940872132778168 0.012610451318323612 0.015110078267753124 0.018334906548261642 0.022217731922864914 0.026626789942383766 0.031479958444833755 0.036733318120241165 0.04031578078866005 0.03508519381284714 0.030208803713321686 0.025760523974895477 0.02181178890168667 0.01847059093415737 0.015816878527402878 0.013943609781563282 0.012904606759548187 0.012756077572703362 0.01349920779466629 0.01511007733643055 0.01751723699271679 0.020641757175326347 0.024384738877415657 0.028679871931672096 0.0334220714867115 0.03853921592235565 0.04268601909279823 0.0375746414065361 0.03284783661365509 0.02855696529150009 0.02475215494632721 0.021549876779317856 0.019022628664970398 0.017228424549102783 0.016252504661679268 0.01610775850713253 0.016812704503536224 0.018334906548261642 0.020641759037971497 0.023631425574421883 0.027225662022829056 0.031377363950014114 0.03597654402256012 0.040952444076538086 0.04556342959403992 0.040634531527757645 0.03607317805290222 0.03192972019314766 0.028320077806711197 0.025261180475354195 0.02285640500485897 0.02115926705300808 0.020230485126376152 0.020095834508538246 0.020766329020261765 0.022217730060219765 0.024384738877415657 0.027225662022829056 0.03068600222468376 0.03464066982269287 0.03906998038291931 0.04388613998889923 0.0489310584962368 0.044175468385219574 0.03979826346039772 0.035859741270542145 0.032390207052230835 0.029502253979444504 0.02722879871726036 0.02563082054257393 0.024763349443674088 0.024634767323732376 0.02526300959289074 0.026626786217093468 0.028679871931672096 0.031377363950014114 0.03464066982269287 0.03844687342643738 0.042693834751844406 0.04733359068632126 0.05274954065680504 0.04817599430680275 0.043987102806568146 0.04022757336497307 0.036932289600372314 0.03420344740152359 0.03205930069088936 0.030566398054361343 0.029742563143372536 0.029621288180351257 0.030207330361008644 0.031479958444833755 0.0334220714867115 0.03597654402256012 0.03906998038291931 0.042693838477134705 0.04675695300102234 0.05121070519089699 0.056956466287374496 0.05256804823875427 0.048562780022621155 0.04498405382037163 0.041861630976200104 0.039289988577365875 0.0372551754117012 0.03585320711135864 0.035087067633867264 0.034980058670043945 0.035535842180252075 0.036733318120241165 0.03853921592235565 0.040952444076538086 0.04388613998889923 0.04733359068632126 0.051210708916187286 0.05547497048974037 0.054655395448207855 0.05016687884926796 0.04605986550450325 0.04237077757716179 0.03916244953870773 0.03650231286883354 0.03441891819238663 0.03294828534126282 0.03216150030493736 0.0320550799369812 0.03262452781200409 0.03386005386710167 0.03573385253548622 0.03823043406009674 0.04124973714351654 0.04476861655712128 0.04874895513057709 0.05311925336718559 0.05016687884926796 0.045470576733350754 0.04114917293190956 0.03724896162748337 0.03386268764734268 0.0310104638338089 0.028787462040781975 0.02722986601293087 0.026370301842689514 0.02624618634581566 0.02685956284403801 0.02819562517106533 0.030211983248591423 0.03284440562129021 0.03607124835252762 0.03979143872857094 0.04397962987422943 0.048559993505477905 0.04605986550450325 0.04114917293190956 0.03661235794425011 0.032500043511390686 0.028903324156999588 0.025865811854600906 0.023479752242565155 0.021806864067912102 0.02089666947722435 0.020760534331202507 0.02141450345516205 0.022858118638396263 0.025016745552420616 0.027831779792904854 0.03125496208667755 0.03518882021307945 0.039594121277332306 0.04438448324799538 0.04237077757716179 0.03724896162748337 0.03250003978610039 0.028195800259709358 0.024370213970541954 0.021148625761270523 0.018600279465317726 0.016809668391942978 0.015815960243344307 0.01567026413977146 0.016391130164265633 0.01792564056813717 0.020239626988768578 0.02324308268725872 0.026854252442717552 0.031029852107167244 0.0356411412358284 0.04064178839325905 0.03916244953870773 0.03386268764734268 0.028903324156999588 0.024370213970541954 0.020368175581097603 0.016947196796536446 0.014233487658202648 0.012305903248488903 0.011244910769164562 0.011088361032307148 0.011855236254632473 0.013499703258275986 0.015962151810526848 0.019147692248225212 0.02299041673541069 0.02734670601785183 0.03216085210442543 0.03736582025885582 0.03650231286883354 0.0310104638338089 0.025865811854600906 0.021148625761270523 0.016947196796536446 0.013350890018045902 0.01046524103730917 0.008418484590947628 0.007281760219484568 0.007122859824448824 0.007942711003124714 0.00968940556049347 0.012307899072766304 0.015678519383072853 0.019704146310687065 0.024262944236397743 0.029269959777593613 0.03465522453188896 0.03441891819238663 0.028787462040781975 0.023479752242565155 0.018600281327962875 0.014233486726880074 0.01046524103730917 0.007451305631548166 0.00528328912332654 0.00408693915233016 0.003908978775143623 0.00477962102741003 0.006634852383285761 0.009377921931445599 0.012911802157759666 0.01709398254752159 0.021823963150382042 0.026994261890649796 0.03250410407781601 0.03294828534126282 0.02722986601293087 0.021806864067912102 0.01680966652929783 0.012305903248488903 0.008418485522270203 0.00528328912332654 0.0030379134695976973 0.0017840191721916199 0.0016017728485167027 0.0025058204773813486 0.004434830043464899 0.007289962377399206 0.010938878171145916 0.015247445553541183 0.020100096240639687 0.025396650657057762 0.03102249838411808 0.03216150403022766 0.026370301842689514 0.02089666947722435 0.015815962105989456 0.011244911700487137 0.007281760219484568 0.004086938686668873 0.0017840191721916199 0.000502908427733928 0.000317805097438395 0.0012378289829939604 0.0032138116657733917 0.006131746806204319 0.009859207086265087 0.014235553331673145 0.019160516560077667 0.024520883336663246 0.0302139762789011 0.0320550799369812 0.02624618634581566 0.020760534331202507 0.01567026413977146 0.011088361032307148 0.0071228607557713985 0.003908978775143623 0.0016017728485167027 0.00031780137214809656 0.00013006821973249316 0.0010594130726531148 0.00304251816123724 0.005970829166471958 0.009698857553303242 0.014089151285588741 0.019019827246665955 0.024390991777181625 0.03010024130344391 0.03262452781200409 0.02685956284403801 0.02141450345516205 0.016391132026910782 0.011855239979922771 0.00794271007180214 0.004779624752700329 0.002505820244550705 0.0012378289829939604 0.0010594130726531148 0.0019710746128112078 0.003917066380381584 0.006799741182476282 0.010479801334440708 0.01481851376593113 0.01970612071454525 0.025014793500304222 0.03068823367357254 0.03386005386710167 0.02819562517106533 0.022858118638396263 0.017925642430782318 0.013499703258275986 0.00968940556049347 0.006634853780269623 0.004434830043464899 0.0032138116657733917 0.003042518626898527 0.003917067311704159 0.005804889369755983 0.00859142281115055 0.012157350778579712 0.01640123873949051 0.021168693900108337 0.026370109990239143 0.03195123001933098 0.03573385253548622 0.030211983248591423 0.025016745552420616 0.020239626988768578 0.0159621499478817 0.012307900004088879 0.009377921931445599 0.007289959117770195 0.006131747737526894 0.005970828700810671 0.006799741182476282 0.00859142281115055 0.011256621219217777 0.014683443121612072 0.018749022856354713 0.02337428368628025 0.02843969315290451 0.033865202218294144 0.03823043778538704 0.03284440562129021 0.027831779792904854 0.02324308082461357 0.019147692248225212 0.015678521245718002 0.012911802157759666 0.010938877239823341 0.009859208017587662 0.009698859415948391 0.010479800403118134 0.012157350778579712 0.014683441258966923 0.017938850447535515 0.02182033471763134 0.026260297745466232 0.03115304559469223 0.036407265812158585 0.04124973714351654 0.03607124835252762 0.03125496208667755 0.026854252442717552 0.02299041487276554 0.019704144448041916 0.01709398254752159 0.015247445553541183 0.014235553331673145 0.014089152216911316 0.01481851376593113 0.01640123687684536 0.018749022856354713 0.02182033471763134 0.025523720309138298 0.029737433418631554 0.03442307934165001 0.039487361907958984 0.04476861655712128 0.03979143872857094 0.03518882021307945 0.031029853969812393 0.02734670601785183 0.024262942373752594 0.021823961287736893 0.020100096240639687 0.019160516560077667 0.019019827246665955 0.01970612071454525 0.021168693900108337 0.02337428368628025 0.026260297745466232 0.029737433418631554 0.0337689034640789 0.03823862597346306 0.043099839240312576 0.04874895513057709 0.04397962987422943 0.039594121277332306 0.0356411412358284 0.03216085210442543 0.029269959777593613 0.026994261890649796 0.025396648794412613 0.024520883336663246 0.024390993639826775 0.025014793500304222 0.026370109990239143 0.02843969129025936 0.031153041869401932 0.03442307934165001 0.03823862597346306 0.04249745234847069 0.04714655131101608 0.05311925336718559 0.048559997230768204 0.04438448324799538 0.04064178839325905 0.03736582025885582 0.03465522453188896 0.03250410407781601 0.03102249465882778 0.0302139725536108 0.03010023944079876 0.03068823367357254 0.03195123001933098 0.033865202218294144 0.036407265812158585 0.039487361907958984 0.043099842965602875 0.04714655131101608 0.051580704748630524 0.051286481320858 0.0466436930000782 0.04238184913992882 0.038534317165613174 0.03517979755997658 0.032401300966739655 0.030199753120541573 0.028660845011472702 0.027829745784401894 0.02771628648042679 0.028320811688899994 0.029615089297294617 0.03159052133560181 0.03420340269804001 0.037369899451732635 0.0410369373857975 0.045169398188591 0.04969824478030205 0.0466436930000782 0.04177007079124451 0.037265390157699585 0.03318043425679207 0.029617905616760254 0.02660280466079712 0.024257967248558998 0.022598695009946823 0.021691812202334404 0.021559372544288635 0.022209443151950836 0.02362200990319252 0.02576468326151371 0.02855256013572216 0.03194776549935341 0.03584261238574982 0.040211789309978485 0.0449727326631546 0.04238184913992882 0.037265390157699585 0.032516662031412125 0.02818918786942959 0.024382242932915688 0.02114957943558693 0.01860254444181919 0.01680240035057068 0.015826616436243057 0.015677956864237785 0.016386495903134346 0.017928920686244965 0.020235050469636917 0.023233875632286072 0.026862407103180885 0.031011320650577545 0.03563534468412399 0.040635887533426285 0.038534317165613174 0.03318043425679207 0.028189191594719887 0.02362219989299774 0.019548920914530754 0.016100678592920303 0.013343351893126965 0.011403203941881657 0.010313733480870724 0.01015700027346611 0.010940669104456902 0.012605498544871807 0.015109256841242313 0.018347011879086494 0.022202806547284126 0.026623953133821487 0.0314924493432045 0.036736346781253815 0.03517979755997658 0.029617905616760254 0.024382242932915688 0.019548920914530754 0.015249506570398808 0.011554839089512825 0.008580677211284637 0.006468949373811483 0.005288773216307163 0.005118601955473423 0.005970398895442486 0.0077860248275101185 0.0104704350233078 0.013941253535449505 0.01807260327041149 0.022720877081155777 0.027828233316540718 0.03330211713910103 0.03240130469202995 0.02660280466079712 0.02114957943558693 0.016100678592920303 0.011554837226867676 0.007619515061378479 0.004428105894476175 0.0021484862081706524 0.000872550648637116 0.0006903303437866271 0.0016051506390795112 0.0035657817497849464 0.0064711119048297405 0.010166514664888382 0.01453461404889822 0.019436804577708244 0.024773262441158295 0.030448146164417267 0.030199753120541573 0.024257970973849297 0.01860254444181919 0.013343351893126965 0.008580677211284637 0.004428105894476175 0.0010603767586871982 -0.0013952219160273671 -0.0027607332449406385 -0.002963159466162324 -0.001967808697372675 0.00013733800733461976 0.0032226250041276217 0.007127594202756882 0.011715030297636986 0.016820993274450302 0.022351037710905075 0.028192739933729172 0.028660845011472702 0.022598695009946823 0.01680240035057068 0.011403201147913933 0.006468948908150196 0.0021484862081706524 -0.0013952221488580108 -0.003963743336498737 -0.00541475648060441 -0.00562561908736825 -0.004577388986945152 -0.002360872458666563 0.0008816361078061163 0.004956109449267387 0.009702148847281933 0.01495747547596693 0.020643562078475952 0.026615794748067856 0.027829743921756744 0.021691810339689255 0.015826614573597908 0.010313734412193298 0.0052887755446136 0.000872550648637116 -0.0027607332449406385 -0.00541475648060441 -0.0069123366847634315 -0.007130683399736881 -0.006048818118870258 -0.0037567270919680595 -0.000432907254435122 0.003752178978174925 0.008581917732954025 0.013955585658550262 0.019708853214979172 0.02576676942408085 0.02771628648042679 0.021559370681643486 0.015677960589528084 0.01015700027346611 0.005118601955473423 0.0006903334287926555 -0.002963156206533313 -0.00562561908736825 -0.0071306792087852955 -0.007346318569034338 -0.006259185262024403 -0.003958303481340408 -0.0006157548632472754 0.003576872404664755 0.008424310013651848 0.013803647831082344 0.019571863114833832 0.025647593662142754 0.028320807963609695 0.022209445014595985 0.016386495903134346 0.010940668173134327 0.005970401223748922 0.0016051506390795112 -0.001967809395864606 -0.00457738945260644 -0.006048817653208971 -0.006259185262024403 -0.0052002593874931335 -0.0029543538112193346 0.0003214084426872432 0.004445598926395178 0.00922656524926424 0.014536709524691105 0.020232735201716423 0.02626391313970089 0.029615091159939766 0.02362200990319252 0.017928920686244965 0.012605498544871807 0.007786024361848831 0.0035657817497849464 0.000137338021886535 -0.002360872458666563 -0.0037567263934761286 -0.003958307672291994 -0.0029543538112193346 -0.0008025963907130063 0.0023387488909065723 0.006307822186499834 0.010951835662126541 0.016122393310070038 0.02169097028672695 0.027605347335338593 0.03159052133560181 0.02576468512415886 0.020235048606991768 0.015109256841242313 0.0104704350233078 0.006471110973507166 0.003222622675821185 0.0008816401241347194 -0.000432907254435122 -0.0006157558527775109 0.0003214084426872432 0.0023387488909065723 0.005301504395902157 0.009076365269720554 0.013507531024515629 0.01848939061164856 0.02388407103717327 0.02961963601410389 0.03420340269804001 0.02855256199836731 0.023233875632286072 0.018347011879086494 0.013941253535449505 0.010166512802243233 0.007127594202756882 0.0049561089836061 0.003752178978174925 0.0035768714733421803 0.0044455998577177525 0.006307822652161121 0.00907636433839798 0.012619773857295513 0.016817107796669006 0.021574456244707108 0.026754332706332207 0.03230153024196625 0.03736989572644234 0.03194776177406311 0.026862407103180885 0.022202806547284126 0.01807260327041149 0.014534613117575645 0.011715029366314411 0.009702148847281933 0.008581917732954025 0.008424310013651848 0.009226571768522263 0.010951835662126541 0.013507531024515629 0.016817109659314156 0.020780853927135468 0.02526679076254368 0.030203206464648247 0.03552211821079254 0.0410369373857975 0.03584261238574982 0.031011320650577545 0.026623953133821487 0.022720878943800926 0.019436806440353394 0.01682099513709545 0.01495747547596693 0.013955585658550262 0.013803644105792046 0.01453670859336853 0.016122393310070038 0.01848938874900341 0.02157445251941681 0.02526679076254368 0.029519934207201004 0.03421194851398468 0.03929239511489868 0.045169398188591 0.040211789309978485 0.03563534468412399 0.0314924530684948 0.027828235179185867 0.024773262441158295 0.022351035848259926 0.020643560215830803 0.01970885694026947 0.019571859389543533 0.020232735201716423 0.02169097028672695 0.02388407476246357 0.026754332706332207 0.030203206464648247 0.03421194851398468 0.03866594657301903 0.04350757598876953 0.04969824478030205 0.0449727326631546 0.040635887533426285 0.036736346781253815 0.03330211713910103 0.030448146164417267 0.028192739933729172 0.026615794748067856 0.02576676942408085 0.025647597387433052 0.02626391313970089 0.027605347335338593 0.02961963601410389 0.03230153024196625 0.03552211448550224 0.03929239511489868 0.04350757598876953 0.04810883849859238 0.04837486520409584 0.04359367489814758 0.039177488535642624 0.03518636152148247 0.03170319274067879 0.028790036216378212 0.026496628299355507 0.024870701134204865 0.023997634649276733 0.023879017680883408 0.024512965232133865 0.025879742577672005 0.027946487069129944 0.03068244643509388 0.033972080796957016 0.03779042884707451 0.04206737130880356 0.04673539847135544 0.04359367862343788 0.03854694962501526 0.03386353328824043 0.029605712741613388 0.025882719084620476 0.02271542325615883 0.020231610164046288 0.01848221756517887 0.017516005784273148 0.017374908551573753 0.018067505210638046 0.019563881680369377 0.02182912826538086 0.024757221341133118 0.02831755205988884 0.03239058703184128 0.0369369238615036 0.04186301678419113 0.039177488535642624 0.03386353328824043 0.028910523280501366 0.024374540895223618 0.020362883806228638 0.016937255859375 0.014225668273866177 0.012302003800868988 0.011253023520112038 0.011093192733824253 0.01185499969869852 0.013505656272172928 0.01597018726170063 0.01915632002055645 0.022988514974713326 0.02734502963721752 0.03217683732509613 0.03737679123878479 0.035186365246772766 0.029605712741613388 0.024374540895223618 0.019564077258110046 0.015238366089761257 0.011547693982720375 0.008575459942221642 0.006472988054156303 0.005286102183163166 0.005114778410643339 0.0059706466272473335 0.007778323255479336 0.010481809265911579 0.013953084126114845 0.018059443682432175 0.02273828163743019 0.027845202013850212 0.03331519290804863 0.03170319274067879 0.025882717221975327 0.020362883806228638 0.015238367021083832 0.010632524266839027 0.006637668702751398 0.0033899019472301006 0.0010638373205438256 -0.00024414061044808477 -0.00043344657751731575 0.0005128785851411521 0.002517109038308263 0.00545728113502264 0.009222502820193768 0.013659418560564518 0.01861191727221012 0.023995069786906242 0.02973361872136593 0.028790036216378212 0.02271542325615883 0.016937255859375 0.011547693982720375 0.006637669634073973 0.0023342198692262173 -0.0012022375594824553 -0.00375883630476892 -0.005203492473810911 -0.005410909187048674 -0.004370024427771568 -0.002166089368984103 0.0010662265121936798 0.005125338211655617 0.009863787330687046 0.015119359828531742 0.02077736333012581 0.026757439598441124 0.026496628299355507 0.020231610164046288 0.014225668273866177 0.008575459010899067 0.0033899019472301006 -0.0012022375594824553 -0.00498968968167901 -0.007790663745254278 -0.009375808760523796 -0.00960624311119318 -0.008459008298814297 -0.006039152853190899 -0.0025504829827696085 0.0017939272802323103 0.0068116458132863045 0.012322163209319115 0.01821836084127426 0.02437749318778515 0.024870702996850014 0.01848221756517887 0.012302005663514137 0.006472985725849867 0.0010638373205438256 -0.003758837701752782 -0.007790663279592991 -0.010782890021800995 -0.012495472095906734 -0.012748914770781994 -0.011503653600811958 -0.008910294622182846 -0.005193148273974657 -0.0006142063066363335 0.004618251696228981 0.010318638756871223 0.016401156783103943 0.022729430347681046 0.023997634649276733 0.017516009509563446 0.0112530263140