# vtk DataFile Version 4.2
 vtk output
ASCII
DATASET STRUCTURED_POINTS
DIMENSIONS 58 58 58
SPACING 0.001875 0.001875 0.001875
ORIGIN -0.053743705 -0.053743705 -0.05375
POINT_DATA  195112
SCALARS u float 1
LOOKUP_TABLE default
0.04310749098658562 0.04202882573008537 0.040983814746141434 0.039979320019483566 0.03898327797651291 0.038013968616724014 0.03710053861141205 0.03619703650474548 0.035314787179231644 0.034496698528528214 0.03368925675749779 0.03292184695601463 0.03219327703118324 0.031488820910453796 0.0308489091694355 0.030217159539461136 0.02964548021554947 0.02909632958471775 0.028609344735741615 0.028149574995040894 0.027742505073547363 0.027363916859030724 0.027042653411626816 0.02674942836165428 0.026523083448410034 0.026320451870560646 0.026188137009739876 0.02607775293290615 0.026034558191895485 0.02602105773985386 0.026062382385134697 0.02614769898355007 0.026271631941199303 0.026455147191882133 0.026666071265935898 0.02694619633257389 0.02724815532565117 0.02761881984770298 0.028005722910165787 0.028459174558520317 0.028926581144332886 0.029465092346072197 0.030022460967302322 0.03064165636897087 0.031276214867830276 0.03195769712328911 0.03268299251794815 0.03343036025762558 0.03423295170068741 0.035042740404605865 0.035902127623558044 0.03680543601512909 0.03771094232797623 0.038660723716020584 0.03965312987565994 0.04065249115228653 0.041682299226522446 0.04275364428758621 0.04202882573008537 0.04096047952771187 0.039892710745334625 0.038854263722896576 0.037869639694690704 0.0368947833776474 0.035940222442150116 0.035039838403463364 0.03415723145008087 0.03330879658460617 0.032501380890607834 0.03170974552631378 0.030984606593847275 0.030273133888840675 0.029603824019432068 0.028977248817682266 0.028387481346726418 0.027848387137055397 0.027332521975040436 0.026873160153627396 0.026445936411619186 0.026077833026647568 0.025745971128344536 0.025458985939621925 0.025221822783350945 0.025017149746418 0.024878382682800293 0.02476419135928154 0.024719610810279846 0.02470611408352852 0.024747440591454506 0.02483794279396534 0.024963071569800377 0.025154603645205498 0.025369226932525635 0.025652237236499786 0.02595837041735649 0.026325244456529617 0.02672438882291317 0.02718210034072399 0.02767231874167919 0.028211377561092377 0.028775321319699287 0.029397929087281227 0.030044781044125557 0.03075222671031952 0.03146611899137497 0.032239485532045364 0.03304474800825119 0.033872682601213455 0.03475044295191765 0.0356416292488575 0.03657723218202591 0.03755123168230057 0.03852858766913414 0.039547163993120193 0.04061169922351837 0.04167953506112099 0.040983814746141434 0.039892710745334625 0.03882896155118942 0.0377810001373291 0.03676600381731987 0.03578927740454674 0.03482581675052643 0.03390348702669144 0.03302207589149475 0.03214647248387337 0.03133368119597435 0.03054806962609291 0.02978297509253025 0.02907627262175083 0.02839069627225399 0.027766956016421318 0.027153989300131798 0.026606440544128418 0.02608388103544712 0.025627145543694496 0.025187630206346512 0.024814479053020477 0.024463646113872528 0.02417987398803234 0.023933814838528633 0.02373473532497883 0.023591583594679832 0.023477746173739433 0.02343299239873886 0.0234199371188879 0.0234599057585001 0.02355247177183628 0.023676427081227303 0.023868786171078682 0.024088311940431595 0.024369997903704643 0.024694595485925674 0.025061631575226784 0.02548159286379814 0.025927912443876266 0.02643376588821411 0.02696707658469677 0.027565689757466316 0.028182122856378555 0.028849003836512566 0.029549680650234222 0.030291518196463585 0.031077085062861443 0.031871892511844635 0.03273448348045349 0.03361499682068825 0.0345175638794899 0.035472702234983444 0.03644546866416931 0.03744402900338173 0.03848486766219139 0.03954388573765755 0.04062292352318764 0.039979320019483566 0.038854263722896576 0.0377810001373291 0.036738552153110504 0.03569694980978966 0.034698620438575745 0.0337475910782814 0.03279794380068779 0.03189403936266899 0.03103560581803322 0.030186612159013748 0.02939373068511486 0.028624292463064194 0.027906175702810287 0.02721524052321911 0.026562081649899483 0.025962460786104202 0.02539607137441635 0.024873586371541023 0.02439076267182827 0.023954415693879128 0.023574654012918472 0.0232224240899086 0.022936291992664337 0.022676998749375343 0.02247786335647106 0.022325091063976288 0.022209687158465385 0.022163260728120804 0.02215041033923626 0.022189782932400703 0.022286271676421165 0.02241489477455616 0.022611910477280617 0.022845620289444923 0.02312324568629265 0.0234586950391531 0.02381906658411026 0.02424727752804756 0.02470407634973526 0.02522541768848896 0.02576768770813942 0.02636510506272316 0.026990722864866257 0.027680499479174614 0.02838069200515747 0.02914050780236721 0.0299219973385334 0.03075580671429634 0.0316125713288784 0.03249369189143181 0.03343728184700012 0.034387338906526566 0.03536304458975792 0.03639809787273407 0.0374404639005661 0.03849706053733826 0.039609331637620926 0.03898327797651291 0.037869639694690704 0.03676600381731987 0.03569694980978966 0.03466903045773506 0.03365333005785942 0.03267014026641846 0.031730346381664276 0.03080739825963974 0.02993122488260269 0.029080670326948166 0.028265701606869698 0.027501622214913368 0.026746930554509163 0.026064785197377205 0.02539805881679058 0.02479025535285473 0.0242011658847332 0.023685958236455917 0.023190291598439217 0.022757062688469887 0.022352878004312515 0.022003019228577614 0.021709363907575607 0.021447686478495598 0.021252447739243507 0.021094946190714836 0.02098054252564907 0.020932184532284737 0.02091958187520504 0.020958181470632553 0.021057194098830223 0.021189704537391663 0.02138182707130909 0.021621854975819588 0.02189476601779461 0.022237861528992653 0.022616270929574966 0.023047327995300293 0.023520885035395622 0.02402665466070175 0.024595236405730247 0.025193162262439728 0.025846051052212715 0.026517704129219055 0.02725243754684925 0.028015365824103355 0.028807200491428375 0.02965153008699417 0.03051433339715004 0.031427863985300064 0.03236084431409836 0.033326033502817154 0.034337159246206284 0.03535892069339752 0.03641163185238838 0.03750847652554512 0.03861746937036514 0.038013968616724014 0.0368947833776474 0.03578927740454674 0.034698620438575745 0.03365333005785942 0.03263729065656662 0.03163442388176918 0.030681349337100983 0.029757048934698105 0.028849080204963684 0.028006333857774734 0.02717442251741886 0.026387253776192665 0.025647180154919624 0.02493239752948284 0.024265887215733528 0.023639395833015442 0.02306167222559452 0.02251807413995266 0.022017743438482285 0.02157941646873951 0.02116883359849453 0.020822575315833092 0.020510738715529442 0.02024460770189762 0.020044812932610512 0.019883131608366966 0.019771946594119072 0.01972174644470215 0.019709616899490356 0.0197470523416996 0.019846782088279724 0.01998390071094036 0.02017141506075859 0.020423242822289467 0.02071065455675125 0.021053316071629524 0.021443529054522514 0.0218631811439991 0.022353248670697212 0.022873440757393837 0.02345069870352745 0.024051833897829056 0.02471366710960865 0.025405706837773323 0.026145122945308685 0.026906002312898636 0.02773461490869522 0.028568143025040627 0.029456257820129395 0.03037945181131363 0.03131642937660217 0.03230707719922066 0.033321313560009 0.03435181826353073 0.03543033078312874 0.036533620208501816 0.03764432668685913 0.03710053861141205 0.035940222442150116 0.03482581675052643 0.0337475910782814 0.03267014026641846 0.03163442388176918 0.03064563125371933 0.029657917097210884 0.02872345596551895 0.027825841680169106 0.02693854831159115 0.026118086650967598 0.02531307004392147 0.024559248238801956 0.023834433406591415 0.023167621344327927 0.022520309314131737 0.02193506807088852 0.021381638944149017 0.02088937535881996 0.020423827692866325 0.020014120265841484 0.019662577658891678 0.019344093278050423 0.019085848703980446 0.018876025453209877 0.018705738708376884 0.018594468012452126 0.01853994093835354 0.018527891486883163 0.018565893173217773 0.01866939105093479 0.018815597519278526 0.019004840403795242 0.01925956830382347 0.019554810598492622 0.019887762144207954 0.020288733765482903 0.02073005586862564 0.021217837929725647 0.02175254561007023 0.02231895737349987 0.022956043481826782 0.023607751354575157 0.024319883435964584 0.02505955658853054 0.025854721665382385 0.026664966717362404 0.027532661333680153 0.02843027561903 0.029343008995056152 0.030322831124067307 0.03131113573908806 0.03232354298233986 0.033395614475011826 0.0344732403755188 0.0355692096054554 0.036720093339681625 0.036197032779455185 0.035039838403463364 0.03390348702669144 0.03279794752597809 0.031730346381664276 0.030681349337100983 0.029657917097210884 0.028684983029961586 0.027725880965590477 0.026808874681591988 0.02593214437365532 0.025079211220145226 0.024275250732898712 0.023500293493270874 0.02278185449540615 0.02207847312092781 0.021448886021971703 0.020840337499976158 0.020283589139580727 0.0197772104293108 0.019308924674987793 0.01890096813440323 0.018527235835790634 0.018205061554908752 0.017949450761079788 0.017734553664922714 0.017563173547387123 0.017455164343118668 0.01739809662103653 0.01738644205033779 0.017424410209059715 0.017527146264910698 0.017676517367362976 0.017868522554636 0.01811630092561245 0.018420754000544548 0.0187701229006052 0.01917072758078575 0.019623802974820137 0.020105179399251938 0.020658204331994057 0.021244682371616364 0.021869966760277748 0.02254823036491871 0.023263506591320038 0.02401767484843731 0.02481519803404808 0.025647979229688644 0.02651982381939888 0.02741902321577072 0.028371499851346016 0.02933676913380623 0.0303411353379488 0.0313873291015625 0.032446205615997314 0.03353770449757576 0.034667059779167175 0.03581677004694939 0.035314787179231644 0.03415723517537117 0.03302207589149475 0.03189403936266899 0.03080739825963974 0.029757047072052956 0.028723454102873802 0.027725880965590477 0.026767021045088768 0.025831831619143486 0.024945303797721863 0.024082345888018608 0.023266658186912537 0.02248670719563961 0.021743109449744225 0.021052751690149307 0.020391805097460747 0.01978137344121933 0.019224703311920166 0.01869376376271248 0.01822865568101406 0.017811674624681473 0.017432020977139473 0.017113449051976204 0.016841553151607513 0.016618605703115463 0.01644943468272686 0.016342228278517723 0.016283271834254265 0.016272110864520073 0.01631039008498192 0.016411174088716507 0.01656281016767025 0.01676187850534916 0.017012039199471474 0.01732684299349785 0.01768600381910801 0.01808123290538788 0.018538687378168106 0.01904934085905552 0.0195893757045269 0.020189687609672546 0.0208274032920599 0.021517625078558922 0.02223319374024868 0.023011907935142517 0.02380731701850891 0.02466113679111004 0.02553549036383629 0.026458535343408585 0.027411727234721184 0.028391750529408455 0.029416056349873543 0.03046303056180477 0.03153305873274803 0.032651327550411224 0.03378646820783615 0.03493046015501022 0.03449670225381851 0.03330879658460617 0.03214647248387337 0.03103560395538807 0.029931223019957542 0.028849080204963684 0.027825843542814255 0.026808874681591988 0.025831829756498337 0.02490067295730114 0.023981543257832527 0.0231271181255579 0.022286267951130867 0.021503599360585213 0.020750822499394417 0.02004244551062584 0.01937723532319069 0.018763430416584015 0.01817958801984787 0.017663585022091866 0.01718597486615181 0.01674547977745533 0.016374658793210983 0.016053294762969017 0.015775274485349655 0.015544306486845016 0.015373831614851952 0.015260960906744003 0.01519937627017498 0.015188563615083694 0.015228562988340855 0.015328695066273212 0.015488239005208015 0.01569775678217411 0.015954159200191498 0.016258956864476204 0.016623063012957573 0.017038635909557343 0.017496194690465927 0.018010832369327545 0.018566904589533806 0.019169434905052185 0.019824642688035965 0.02050785906612873 0.021257726475596428 0.022018706426024437 0.022852249443531036 0.023696091026067734 0.024596884846687317 0.025527091696858406 0.02648136205971241 0.027493298053741455 0.028511742129921913 0.02957090176641941 0.0306748915463686 0.03178015723824501 0.03292408213019371 0.03410860896110535 0.03368925675749779 0.032501380890607834 0.03133368119597435 0.030186612159013748 0.029080670326948166 0.028006335720419884 0.02693854831159115 0.02593214251101017 0.024945303797721863 0.023981543257832527 0.02308039180934429 0.022184213623404503 0.02135864831507206 0.02054666168987751 0.019794698804616928 0.019071126356720924 0.018400851637125015 0.0177706778049469 0.01719239540398121 0.01665615849196911 0.016169309616088867 0.015736961737275124 0.015351406298577785 0.01501970924437046 0.014737999066710472 0.014511472545564175 0.014342201873660088 0.014224640093743801 0.01416014414280653 0.01414948608726263 0.014192702248692513 0.014292013831436634 0.014451643452048302 0.014663955196738243 0.014925035648047924 0.015233192592859268 0.015600367449223995 0.016027916222810745 0.016494285315275192 0.017004694789648056 0.017581747844815254 0.018189676105976105 0.0188465379178524 0.019557947292923927 0.02028978429734707 0.021093357354402542 0.021906675770878792 0.022786490619182587 0.02368631213903427 0.024622995406389236 0.0256098210811615 0.02660156413912773 0.027656033635139465 0.028728531673550606 0.02981986664235592 0.030956115573644638 0.03211655467748642 0.033301107585430145 0.03292185068130493 0.03170974552631378 0.03054807335138321 0.02939373068511486 0.028265701606869698 0.02717442251741886 0.026118088513612747 0.025079211220145226 0.024082345888018608 0.0231271181255579 0.022184213623404503 0.021310124546289444 0.020444098860025406 0.019645242020487785 0.018865535035729408 0.018145086243748665 0.01745886728167534 0.016821127384901047 0.01623721979558468 0.01568761095404625 0.015195940621197224 0.014761820435523987 0.014369233511388302 0.014022449031472206 0.01373989600688219 0.01351646427065134 0.013343834318220615 0.013224153779447079 0.013158861547708511 0.013148716650903225 0.013193754479289055 0.013293330557644367 0.013448987156152725 0.013661729171872139 0.013928357511758804 0.014254282228648663 0.014627048745751381 0.015042744576931 0.015524902381002903 0.016056334599852562 0.016618017107248306 0.017250176519155502 0.017917700111865997 0.018623480573296547 0.019389793276786804 0.020174622535705566 0.02102646417915821 0.021895112469792366 0.022815341129899025 0.023769889026880264 0.024745438247919083 0.02577855996787548 0.026825156062841415 0.027904478833079338 0.029021769762039185 0.03017050214111805 0.031327374279499054 0.03251943737268448 0.03219327703118324 0.030984608456492424 0.02978297509253025 0.028624292463064194 0.027501624077558517 0.026387253776192665 0.02531307004392147 0.024275250732898712 0.023266656324267387 0.022286267951130867 0.02135864831507206 0.020444098860025406 0.01959521882236004 0.018762243911623955 0.017992043867707253 0.0172482430934906 0.016559703275561333 0.015917398035526276 0.015307438559830189 0.014769908040761948 0.014269487001001835 0.013812691904604435 0.013420087285339832 0.013080875389277935 0.012790265493094921 0.012556392699480057 0.012381559237837791 0.01226066891103983 0.012195049785077572 0.01218542829155922 0.012231841683387756 0.01233364176005125 0.012489496730268002 0.012701079249382019 0.012976273894309998 0.01330644078552723 0.013684116303920746 0.014115426689386368 0.014597168192267418 0.01512610912322998 0.015717659145593643 0.016341907903552055 0.01702018454670906 0.01774669624865055 0.018503226339817047 0.01932208053767681 0.020160702988505363 0.0210577379912138 0.02197979763150215 0.02293967828154564 0.023943765088915825 0.024972224608063698 0.026031585410237312 0.027134956791996956 0.028257569298148155 0.029396479949355125 0.030591672286391258 0.031795699149370193 0.031488820910453796 0.030273133888840675 0.02907627262175083 0.027906175702810287 0.026746930554509163 0.025647180154919624 0.024559248238801956 0.023500293493270874 0.022486703470349312 0.021503599360585213 0.02054666168987751 0.019645240157842636 0.018762243911623955 0.017940828576683998 0.01714204251766205 0.01640401966869831 0.015700044110417366 0.015043286606669426 0.014444353990256786 0.013877825811505318 0.013373768888413906 0.012921282090246677 0.012519053183495998 0.012176069431006908 0.011882255785167217 0.011641052551567554 0.011458588764071465 0.011337094940245152 0.011271619237959385 0.011262531392276287 0.011309864930808544 0.011412994004786015 0.011574446223676205 0.011796797625720501 0.012072306126356125 0.012397397309541702 0.0127774802967906 0.013223595917224884 0.013712055049836636 0.014253615401685238 0.014838841743767262 0.01548224687576294 0.016169019043445587 0.016894828528165817 0.01767848990857601 0.018486542627215385 0.019355494529008865 0.02024681121110916 0.021186619997024536 0.022160513326525688 0.023165132850408554 0.024207914248108864 0.02529178000986576 0.02638152241706848 0.02752457931637764 0.028692884370684624 0.029880192130804062 0.031088801100850105 0.03084891103208065 0.029603824019432068 0.02839069627225399 0.02721523866057396 0.026064785197377205 0.02493239939212799 0.023834433406591415 0.0227818563580513 0.021743109449744225 0.020750822499394417 0.01979469694197178 0.018865535035729408 0.017992043867707253 0.017142044380307198 0.01635192707180977 0.015588540583848953 0.014885928481817245 0.01422235555946827 0.01360200997442007 0.013044046238064766 0.012528352439403534 0.012071492150425911 0.011658335104584694 0.01130562461912632 0.011010908521711826 0.01076924055814743 0.01058331597596407 0.010457051917910576 0.010391343384981155 0.01038279663771391 0.010430915281176567 0.01053814310580492 0.010706123895943165 0.01093018613755703 0.01120761688798666 0.011537475511431694 0.01193242147564888 0.012372421100735664 0.012863542884588242 0.013418340124189854 0.014014419168233871 0.014661520719528198 0.015353298746049404 0.016100654378533363 0.016875600442290306 0.017713749781250954 0.01857348158955574 0.019489482045173645 0.02043384686112404 0.021413028240203857 0.022438090294599533 0.023490581661462784 0.024564620107412338 0.025694923475384712 0.026834601536393166 0.028003934770822525 0.029200952500104904 0.03044215962290764 0.030217159539461136 0.028977248817682266 0.027766956016421318 0.026562081649899483 0.02539805881679058 0.024265887215733528 0.023167621344327927 0.02207847312092781 0.021052755415439606 0.02004244551062584 0.019071128219366074 0.018145086243748665 0.0172482430934906 0.01640401780605316 0.015588540583848953 0.01483328640460968 0.01410660706460476 0.013442336581647396 0.012819001451134682 0.012247873470187187 0.011722366325557232 0.01125842984765768 0.010848859325051308 0.010486232116818428 0.010189997032284737 0.009946470148861408 0.009756950661540031 0.009626948274672031 0.009559218771755695 0.009550850838422775 0.009601330384612083 0.009711417369544506 0.009879258461296558 0.010102953761816025 0.010380009189248085 0.010722178965806961 0.011119670234620571 0.011565495282411575 0.012075694277882576 0.012623363174498081 0.01322984043508768 0.013884203508496284 0.014593331143260002 0.015331964008510113 0.016137463971972466 0.016962930560112 0.017851941287517548 0.018764637410640717 0.019722281023859978 0.020720964297652245 0.021738264709711075 0.022809866815805435 0.0239051952958107 0.0250253789126873 0.026177238672971725 0.027371948584914207 0.028581328690052032 0.02980795130133629 0.02964548021554947 0.028387483209371567 0.027153989300131798 0.025962458923459053 0.024790257215499878 0.023639392107725143 0.022520309314131737 0.021448889747262 0.020391805097460747 0.01937723532319069 0.018400853499770164 0.01745886728167534 0.016559703275561333 0.015700044110417366 0.014885928481817245 0.01410660706460476 0.013389469124376774 0.012701068073511124 0.0120775755494833 0.011496154591441154 0.0109763378277421 0.010496653616428375 0.010084197856485844 0.009720043279230595 0.009414157830178738 0.009171213023364544 0.008981699123978615 0.008847893215715885 0.00877799279987812 0.008769999258220196 0.008820855990052223 0.00892997719347477 0.009100206196308136 0.009327944368124008 0.009611992165446281 0.009960687719285488 0.010356036014854908 0.010813705623149872 0.01131775975227356 0.011881325393915176 0.01249521505087614 0.013161077164113522 0.013861419633030891 0.014631382189691067 0.015421224758028984 0.01627892069518566 0.01715722121298313 0.018091317266225815 0.019057538360357285 0.02005169168114662 0.021103592589497566 0.022164257243275642 0.023270128294825554 0.024408629164099693 0.02557959221303463 0.02675780840218067 0.02798214741051197 0.029230009764432907 0.02909632958471775 0.027848387137055397 0.026606440544128418 0.02539607137441635 0.0242011658847332 0.02306167408823967 0.02193506620824337 0.020840337499976158 0.01978137344121933 0.018763428553938866 0.0177706778049469 0.016821127384901047 0.015917396172881126 0.015043290331959724 0.014222351834177971 0.013442335650324821 0.012701068073511124 0.01202481985092163 0.011381583288311958 0.01079666055738926 0.010265328921377659 0.00978911854326725 0.00936482846736908 0.009000289253890514 0.008683858439326286 0.008440334349870682 0.0082527631893754 0.008119789883494377 0.00804621446877718 0.008038777858018875 0.008088935166597366 0.00820112694054842 0.008374297991394997 0.00860016793012619 0.008891461417078972 0.009238503873348236 0.009639125317335129 0.010104392655193806 0.010617805644869804 0.011190243996679783 0.011808219365775585 0.012471695430576801 0.013200054876506329 0.013954810798168182 0.014775155112147331 0.015623491257429123 0.016523327678442 0.01745527796447277 0.0184323787689209 0.019448891282081604 0.02048526331782341 0.02157723344862461 0.022691335529088974 0.023825649172067642 0.02500195987522602 0.02620910480618477 0.027441520243883133 0.02868720516562462 0.028609344735741615 0.027332521975040436 0.02608388103544712 0.024873584508895874 0.023685958236455917 0.022518079727888107 0.021381638944149017 0.020283589139580727 0.019224703311920166 0.01817958801984787 0.01719239354133606 0.016237221658229828 0.015307438559830189 0.014444351196289062 0.01360200997442007 0.012818998657166958 0.012077574618160725 0.011381585150957108 0.010743462480604649 0.010151632130146027 0.009607164189219475 0.009127815254032612 0.008694571442902088 0.008331583812832832 0.008017177693545818 0.007763976696878672 0.00757230119779706 0.007441582158207893 0.00736602395772934 0.007358838804066181 0.00740808667615056 0.007524602580815554 0.007695029955357313 0.007923421449959278 0.00822412222623825 0.00857206154614687 0.00898476131260395 0.00944608822464943 0.00997171550989151 0.01053895428776741 0.011166159994900227 0.011847799643874168 0.012568240985274315 0.013345165178179741 0.01416369155049324 0.015022989362478256 0.015931354835629463 0.016873372718691826 0.017853040248155594 0.018880534917116165 0.01993429847061634 0.021020356565713882 0.02213919535279274 0.02330450713634491 0.024479834362864494 0.02568708546459675 0.026917582377791405 0.028192227706313133 0.028149574995040894 0.026873160153627396 0.025627149268984795 0.02439076267182827 0.023190291598439217 0.022017743438482285 0.02088937535881996 0.01977720856666565 0.01869376376271248 0.017663585022091866 0.01665615849196911 0.01568761095404625 0.014769906178116798 0.013877825811505318 0.013044046238064766 0.012247869744896889 0.011496154591441154 0.01079666055738926 0.010151632130146027 0.00954990740865469 0.009011614136397839 0.008520180359482765 0.008089175447821617 0.00771488668397069 0.007398031186312437 0.007139529567211866 0.006949171889573336 0.00681534968316555 0.0067406934686005116 0.0067322696559131145 0.006784004159271717 0.006898658815771341 0.007071651052683592 0.007306775543838739 0.007603717967867851 0.007956130430102348 0.008375105448067188 0.008843299001455307 0.009367967024445534 0.009947874583303928 0.010578732006251812 0.011266476474702358 0.011995439417660236 0.012776903808116913 0.013598944991827011 0.014477820135653019 0.015377828851342201 0.01633899100124836 0.017333021387457848 0.018347779288887978 0.019422702491283417 0.02052121050655842 0.021648405119776726 0.02280331961810589 0.023994524031877518 0.02522284910082817 0.026461876928806305 0.027732454240322113 0.027742503210902214 0.026445936411619186 0.025187630206346512 0.023954415693879128 0.022757062688469887 0.02157941646873951 0.020423827692866325 0.019308924674987793 0.01822865568101406 0.01718597486615181 0.016169309616088867 0.015195940621197224 0.014269487001001835 0.013373768888413906 0.012528352439403534 0.011722366325557232 0.010976335033774376 0.010265330784022808 0.00960716512054205 0.00901161041110754 0.008461741730570793 0.007964969612658024 0.007533377967774868 0.007149090059101582 0.006834754254668951 0.006571637000888586 0.006379751022905111 0.006243492476642132 0.0061708432622253895 0.006160999648272991 0.006214546505361795 0.006328997667878866 0.0065017519518733025 0.006743781268596649 0.007041701581329107 0.007399385794997215 0.00781517755240202 0.008294369094073772 0.008820703253149986 0.009405205957591534 0.010050362907350063 0.010737030766904354 0.01147021260112524 0.012264687567949295 0.013095066882669926 0.01396755501627922 0.014892845414578915 0.01584673300385475 0.016846057027578354 0.017887940630316734 0.018953021615743637 0.020051827654242516 0.021201973780989647 0.022366175428032875 0.023563308641314507 0.0247797854244709 0.026032879948616028 0.027316778898239136 0.027363916859030724 0.026077834889292717 0.024814477190375328 0.023574654012918472 0.022352878004312515 0.02116883359849453 0.020014120265841484 0.018900969997048378 0.017811676487326622 0.01674547977745533 0.015736961737275124 0.014761821366846561 0.013812691904604435 0.012921282090246677 0.012071490287780762 0.01125843171030283 0.010496653616428375 0.00978911854326725 0.009127818048000336 0.00852018129080534 0.007964970543980598 0.007471932098269463 0.007030284032225609 0.006644639652222395 0.006328280083835125 0.006061607506126165 0.005867884960025549 0.00573250325396657 0.005657588131725788 0.00564678106456995 0.005700747016817331 0.00581715814769268 0.005990736186504364 0.006235676351934671 0.006533185485750437 0.006898173131048679 0.00731731578707695 0.0077957590110599995 0.00833316333591938 0.008923388086259365 0.009564432315528393 0.010260353796184063 0.011009386740624905 0.01179855689406395 0.012635449878871441 0.013517203740775585 0.01445038616657257 0.01541085634380579 0.01641181670129299 0.017462609335780144 0.018537793308496475 0.019650252535939217 0.020787866786122322 0.021960046142339706 0.023175517097115517 0.02440313622355461 0.025665197521448135 0.02693839557468891 0.027042653411626816 0.025745971128344536 0.024463646113872528 0.0232224240899086 0.022003019228577614 0.020822575315833092 0.019662577658891678 0.018527235835790634 0.017432020977139473 0.016374660655856133 0.015351406298577785 0.014369231648743153 0.013420087285339832 0.012519050389528275 0.01165833417326212 0.010848863050341606 0.010084200650453568 0.009364829398691654 0.008694571442902088 0.008089177310466766 0.0075333816930651665 0.0070302835665643215 0.006582008674740791 0.00620211660861969 0.005877798888832331 0.0056120180524885654 0.005413395818322897 0.005277480464428663 0.005202509928494692 0.005191205069422722 0.005245969630777836 0.005363817792385817 0.005537993740290403 0.005786031484603882 0.0060865492559969425 0.00645217252895236 0.0068799713626503944 0.007360607385635376 0.007894535548985004 0.00849278923124075 0.009145763702690601 0.009841794148087502 0.010591062717139721 0.01138457003980875 0.01223792601376772 0.013123226352036 0.01404995284974575 0.01502748392522335 0.016040315851569176 0.017079344019293785 0.018164852634072304 0.019291643053293228 0.020437346771359444 0.02161678858101368 0.02282136306166649 0.02405296452343464 0.025326618924736977 0.026613615453243256 0.02674942836165428 0.025458985939621925 0.02417987398803234 0.022936290130019188 0.021709363907575607 0.020510734990239143 0.019344093278050423 0.018205061554908752 0.017113450914621353 0.016053294762969017 0.015019707381725311 0.014022449031472206 0.013080873526632786 0.012176069431006908 0.01130562461912632 0.010486232116818428 0.00972004048526287 0.009000289253890514 0.008331583812832832 0.0077148862183094025 0.007149090059101582 0.006644639652222395 0.00620211660861969 0.005816249642521143 0.005484189372509718 0.005223268177360296 0.00502019003033638 0.004884573630988598 0.004807010293006897 0.004795671906322241 0.004852309823036194 0.004970266949385405 0.0051481095142662525 0.005395650397986174 0.005700846668332815 0.006065657362341881 0.00649440148845315 0.006983351893723011 0.007526677567511797 0.00812095683068037 0.008773520588874817 0.009474150836467743 0.010234803892672062 0.011034299619495869 0.011887858621776104 0.012776974588632584 0.013708502985537052 0.014693839475512505 0.015712052583694458 0.01675911620259285 0.017847953364253044 0.018968451768159866 0.020122738555073738 0.021317867562174797 0.022530660033226013 0.02377256006002426 0.025039631873369217 0.026324011385440826 0.026523083448410034 0.025221822783350945 0.023933814838528633 0.022676998749375343 0.021447686478495598 0.020244605839252472 0.019085846841335297 0.017949450761079788 0.016841553151607513 0.015775276347994804 0.014737999066710472 0.01373989600688219 0.012790265493094921 0.011882255785167217 0.011010905727744102 0.010189997032284737 0.009414155036211014 0.008683858439326286 0.008017179556190968 0.007398031186312437 0.0068347579799592495 0.006328280083835125 0.005877799354493618 0.005484189372509718 0.005157731473445892 0.00489514647051692 0.004688805900514126 0.004552450496703386 0.0044738249853253365 0.004462302662432194 0.0045198844745755196 0.0046387179754674435 0.0048192390240728855 0.0050626168958842754 0.005375364329665899 0.0057442765682935715 0.00617208331823349 0.006658914964646101 0.007203950081020594 0.007807332556694746 0.008465041406452656 0.009174690581858158 0.0099340183660388 0.01073437836021185 0.01158819068223238 0.012488708831369877 0.013429730199277401 0.014407805167138577 0.015428480692207813 0.01649024523794651 0.017587384209036827 0.018