# vtk DataFile Version 3.0
 vtk output
ASCII
DATASET POLYDATA
POINTS 21 float
0.0 0.0 0.0
0.4969804777275906 0.054867155545516494 0.0
0.970023157141365 0.216825864644586 0.0
1.396343239318422 0.4780751470025428 0.0
1.755406388200047 0.8260315452986685 0.0
2.029917797199159 1.2439352259827736 0.0
2.2066552190888675 1.711657241397677 0.0
2.2771058350577302 2.2066690702559457 0.0
2.2378762871938847 2.7051277371225155 0.0
2.090856124577829 3.1830242445217105 0.0
1.8431267903617234 3.617340001740862 0.0
1.5066205336069145 3.987155549230238 0.0
1.0975456748944676 4.274658175251969 0.0
0.6356059086388743 4.4659998914346355 0.0
0.1430512455615114 4.55196444157448 0.0
-0.35639369191947967 4.5284112162197925 0.0
-0.8386724011484148 4.396474691237236 0.0
-1.280555216192825 4.16250978410707 0.0
-1.6607581989929336 3.837785759942086 0.0
-1.960968311655984 3.437943430698622 0.0
-2.166725490958674 2.982241792380961 0.0
LINES 20 60
2
0
1
2
1
2
2
2
3
2
3
4
2
4
5
2
5
6
2
6
7
2
7
8
2
8
9
2
9
10
2
10
11
2
11
12
2
12
13
2
13
14
2
14
15
2
15
16
2
16
17
2
17
18
2
18
19
2
19
20

 POINT_DATA 21
 SCALARS u float 3
 LOOKUP_TABLE default
0.0 0.0 0.0
-0.003019522272409409 0.054867155545516494 0.0
-0.029976842858635003 0.216825864644586 0.0
-0.10365676068157798 0.4780751470025428 0.0
-0.2445936117999531 0.8260315452986685 0.0
-0.4700822028008411 1.2439352259827736 0.0
-0.7933447809111324 1.711657241397677 0.0
-1.2228941649422695 2.2066690702559457 0.0
-1.7621237128061156 2.7051277371225155 0.0
-2.409143875422171 3.1830242445217105 0.0
-3.1568732096382766 3.617340001740862 0.0
-3.9933794663930855 3.987155549230238 0.0
-4.902454325105532 4.274658175251969 0.0
-5.864394091361126 4.4659998914346355 0.0
-6.856948754438489 4.55196444157448 0.0
-7.85639369191948 4.5284112162197925 0.0
-8.838672401148415 4.396474691237236 0.0
-9.780555216192825 4.16250978410707 0.0
-10.660758198992934 3.837785759942086 0.0
-11.460968311655984 3.437943430698622 0.0
-12.166725490958674 2.982241792380961 0.0