# vtk DataFile Version 3.0
 vtk output
ASCII
DATASET POLYDATA
POINTS 21 float
0.0 0.0 0.0
0.49901336421413617 0.03139525976465052 0.0
0.9901569895784836 0.12508591705749653 0.0
1.4656852477260696 0.27959441424494197 0.0
1.9180987739590982 0.49248406002743844 0.0
2.3402627367101356 0.7603974575168893 0.0
2.7255193580980763 1.0791094523911788 0.0
3.0677929110624786 1.4435937661018303 0.0
3.361685537208788 1.8481022632892514 0.0
3.602562374259737 2.286255603311133 0.0
3.786624650602184 2.751143846255216 0.0
3.9109695941847313 3.235435426819501 0.0
3.9736362109670167 3.7314927774767233 0.0
3.9736362109671624 4.231492777476723 0.0
3.9109695941851643 4.727550128133982 0.0
3.7866246506028927 5.211841708698338 0.0
3.6025623742607085 5.676729951642525 0.0
3.3616855372100023 6.11488329166454 0.0
3.0677929110639095 6.5193917888521185 0.0
2.725519358099695 6.8838761025629465 0.0
2.3402627367119173 7.202588097437433 0.0
LINES 20 60
2
0
1
2
1
2
2
2
3
2
3
4
2
4
5
2
5
6
2
6
7
2
7
8
2
8
9
2
9
10
2
10
11
2
11
12
2
12
13
2
13
14
2
14
15
2
15
16
2
16
17
2
17
18
2
18
19
2
19
20

 POINT_DATA 21
 SCALARS u float 3
 LOOKUP_TABLE default
0.0 0.0 0.0
-0.000986635785863833 0.03139525976465052 0.0
-0.009843010421516396 0.12508591705749653 0.0
-0.034314752273930334 0.27959441424494197 0.0
-0.08190122604090175 0.49248406002743844 0.0
-0.1597372632898642 0.7603974575168893 0.0
-0.27448064190192356 1.0791094523911788 0.0
-0.43220708893752147 1.4435937661018303 0.0
-0.638314462791212 1.8481022632892514 0.0
-0.8974376257402633 2.286255603311133 0.0
-1.213375349397816 2.751143846255216 0.0
-1.5890304058152687 3.235435426819501 0.0
-2.0263637890329833 3.7314927774767233 0.0
-2.5263637890328376 4.231492777476723 0.0
-3.0890304058148357 4.727550128133982 0.0
-3.7133753493971073 5.211841708698338 0.0
-4.3974376257392915 5.676729951642525 0.0
-5.138314462789998 6.11488329166454 0.0
-5.9322070889360905 6.5193917888521185 0.0
-6.774480641900305 6.8838761025629465 0.0
-7.659737263288083 7.202588097437433 0.0