# vtk DataFile Version 3.0
 vtk output
ASCII
DATASET POLYDATA
POINTS 21 float
0.0 0.0 0.0
0.4994449374809853 0.02355322535481516 0.0
0.9944567663392666 0.09400384132358888 0.0
1.480641726538112 0.21072652325151195 0.0
1.953684405951899 0.3726852323505454 0.0
2.409386044269645 0.5784424116530489 0.0
2.8437018014887747 0.8261717458691922 0.0
3.2527766602013326 1.1136743718907662 0.0
3.6329796430014074 1.438398396055789 0.0
3.980936041297639 1.797461544937311 0.0
4.293557369465582 2.1876767486064033 0.0
4.568068778464753 2.6055804292904696 0.0
4.802033685595161 3.0474632443347525 0.0
4.993375401777842 3.50940301059034 0.0
5.140395564394143 3.987299517989459 0.0
5.241789212072559 4.476910923300309 0.0
5.296656367618252 4.97389140102788 0.0
5.304510026274338 5.473829717268708 0.0
5.265280478410597 5.972288384135286 0.0
5.179315928271073 6.464843047212705 0.0
5.047379403288567 6.947121756441653 0.0
LINES 20 60
2
0
1
2
1
2
2
2
3
2
3
4
2
4
5
2
5
6
2
6
7
2
7
8
2
8
9
2
9
10
2
10
11
2
11
12
2
12
13
2
13
14
2
14
15
2
15
16
2
16
17
2
17
18
2
18
19
2
19
20

 POINT_DATA 21
 SCALARS u float 3
 LOOKUP_TABLE default
0.0 0.0 0.0
-0.0005550625190147198 0.02355322535481516 0.0
-0.005543233660733402 0.09400384132358888 0.0
-0.019358273461888027 0.21072652325151195 0.0
-0.0463155940481011 0.3726852323505454 0.0
-0.09061395573035512 0.5784424116530489 0.0
-0.15629819851122528 0.8261717458691922 0.0
-0.24722333979866756 1.1136743718907662 0.0
-0.3670203569985928 1.438398396055789 0.0
-0.519063958702361 1.797461544937311 0.0
-0.7064426305344177 2.1876767486064033 0.0
-0.9319312215352464 2.6055804292904696 0.0
-1.1979663144048394 3.0474632443347525 0.0
-1.5066245982221589 3.50940301059034 0.0
-1.8596044356058574 3.987299517989459 0.0
-2.2582107879274402 4.476910923300309 0.0
-2.703343632381748 4.97389140102788 0.0
-3.1954899737256617 5.473829717268708 0.0
-3.734719521589403 5.972288384135286 0.0
-4.320684071728927 6.464843047212705 0.0
-4.952620596711433 6.947121756441653 0.0