# vtk DataFile Version 3.0
 vtk output
ASCII
DATASET POLYDATA
POINTS 21 float
0.0 0.0 0.0
0.49993831624083035 0.007853658655904162 0.0
0.9993832537218162 0.031406884010707015 0.0
1.4978419205883826 0.0706364318745987 0.0
1.9948223983159772 0.12550358742007836 0.0
2.489834227174264 0.19595420338881467 0.0
2.982388890251663 0.2819187535284526 0.0
3.472000295562562 0.38331240120663046 0.0
3.958185255761422 0.5000350831344936 0.0
4.440463964990348 0.6319716081170798 0.0
4.918360472389548 0.7789917707331212 0.0
5.391403151803361 0.9409504798320759 0.0
5.859125167218345 1.1176879017215757 0.0
6.3210649334740445 1.3090296179039842 0.0
6.776766571791832 1.5147867972063953 0.0
7.225780359672212 1.7347563821342042 0.0
7.66766317471664 1.9687212892643382 0.0
8.101978931935825 2.2164506234803865 0.0
8.528299014112967 2.4776999058382043 0.0
8.946202694797204 2.7522113148371137 0.0
9.355277553509826 3.039713940858599 0.0
LINES 20 60
2
0
1
2
1
2
2
2
3
2
3
4
2
4
5
2
5
6
2
6
7
2
7
8
2
8
9
2
9
10
2
10
11
2
11
12
2
12
13
2
13
14
2
14
15
2
15
16
2
16
17
2
17
18
2
18
19
2
19
20

 POINT_DATA 21
 SCALARS u float 3
 LOOKUP_TABLE default
0.0 0.0 0.0
-6.168375916963582e-5 0.007853658655904162 0.0
-0.0006167462781837328 0.031406884010707015 0.0
-0.0021580794116173928 0.0706364318745987 0.0
-0.005177601684022735 0.12550358742007836 0.0
-0.010165772825735938 0.19595420338881467 0.0
-0.017611109748337194 0.2819187535284526 0.0
-0.027999704437438128 0.38331240120663046 0.0
-0.04181474423857792 0.5000350831344936 0.0
-0.05953603500965126 0.6319716081170798 0.0
-0.08163952761045204 0.7789917707331212 0.0
-0.10859684819663869 0.9409504798320759 0.0
-0.14087483278165558 1.1176879017215757 0.0
-0.1789350665259556 1.3090296179039842 0.0
-0.22323342820816827 1.5147867972063953 0.0
-0.2742196403277877 1.7347563821342042 0.0
-0.3323368252833594 1.9687212892643382 0.0
-0.3980210680641747 2.2164506234803865 0.0
-0.4717009858870326 2.4776999058382043 0.0
-0.5537973052027955 2.7522113148371137 0.0
-0.6447224464901742 3.039713940858599 0.0