# vtk DataFile Version 3.0
 vtk output
ASCII
DATASET POLYDATA
POINTS 21 float
0.0 0.0 0.0
0.49975328018286597 0.01570537953905797 0.0
0.9975342624844078 0.06275953619829687 0.0
1.4913784327819815 0.14097676871838188 0.0
1.9793368137513647 0.25004838941661084 0.0
2.4594836565898515 0.38954394243617196 0.0
2.929924041066988 0.5589129025587533 0.0
3.38880135390901 0.7574868478760702 0.0
3.834304616003236 0.9844820977457618 0.0
4.264675629505261 1.239002805620858 0.0
4.678215916642607 1.5200444945468274 0.0
5.073293422830529 1.8264980213732156 0.0
5.448348957645852 2.1571539540349383 0.0
5.801902348239229 2.510707344628108 0.0
6.132558280901173 2.885762879443234 0.0
6.439011807727791 3.280840385630978 0.0
6.720053496654001 3.694380672768162 0.0
6.97457420452934 4.124751686270042 0.0
7.2015694543992765 4.570254948364144 0.0
7.400143399716837 5.02913226120606 0.0
7.569512359839662 5.499572645683109 0.0
LINES 20 60
2
0
1
2
1
2
2
2
3
2
3
4
2
4
5
2
5
6
2
6
7
2
7
8
2
8
9
2
9
10
2
10
11
2
11
12
2
12
13
2
13
14
2
14
15
2
15
16
2
16
17
2
17
18
2
18
19
2
19
20

 POINT_DATA 21
 SCALARS u float 3
 LOOKUP_TABLE default
0.0 0.0 0.0
-0.00024671981713406 0.01570537953905797 0.0
-0.00246573751559225 0.06275953619829687 0.0
-0.00862156721801844 0.14097676871838188 0.0
-0.020663186248635387 0.25004838941661084 0.0
-0.04051634341014842 0.38954394243617196 0.0
-0.07007595893301238 0.5589129025587533 0.0
-0.11119864609098992 0.7574868478760702 0.0
-0.16569538399676392 0.9844820977457618 0.0
-0.2353243704947388 1.239002805620858 0.0
-0.32178408335739317 1.5200444945468274 0.0
-0.4267065771694704 1.8264980213732156 0.0
-0.5516510423541487 2.1571539540349383 0.0
-0.698097651760771 2.510707344628108 0.0
-0.8674417190988267 2.885762879443234 0.0
-1.0609881922722084 3.280840385630978 0.0
-1.2799465033459996 3.694380672768162 0.0
-1.5254257954706607 4.124751686270042 0.0
-1.7984305456007237 4.570254948364144 0.0
-2.0998566002831622 5.02913226120606 0.0
-2.4304876401603384 5.499572645683109 0.0