# vtk DataFile Version 3.0
 vtk output
ASCII
DATASET POLYDATA
POINTS 21 float
0.0 0.0 0.0
0.49778098230154066 0.04705415665925101 0.0
0.9779278251400153 0.18654970967885523 0.0
1.4234310872342109 0.41354495954860615 0.0
1.818508593422083 0.7199984863750594 0.0
2.149164526083951 1.0950540211902522 0.0
2.403685233959205 1.5254250346921834 0.0
2.573054194081923 1.9958654191692704 0.0
2.6512714266021202 2.4897095894668264 0.0
2.6355660470631586 2.9894628696496954 0.0
2.5264944263649998 3.4774212506190945 0.0
2.3279204810477143 3.9362985634611305 0.0
2.046878792121751 4.349838850598481 0.0
1.6933254015285746 4.703392241191852 0.0
1.2797851143913777 4.9844339301180405 0.0
0.8209078015494446 5.183007875435566 0.0
0.33294942058010335 5.292079496133983 0.0
-0.16680385960275856 5.3077848756732005 0.0
-0.6606480299003508 5.22956764315324 0.0
-1.1310884143775173 5.060198683030741 0.0
-1.5614594278795728 4.805677975155697 0.0
LINES 20 60
2
0
1
2
1
2
2
2
3
2
3
4
2
4
5
2
5
6
2
6
7
2
7
8
2
8
9
2
9
10
2
10
11
2
11
12
2
12
13
2
13
14
2
14
15
2
15
16
2
16
17
2
17
18
2
18
19
2
19
20

 POINT_DATA 21
 SCALARS u float 3
 LOOKUP_TABLE default
0.0 0.0 0.0
-0.0022190176984593214 0.04705415665925101 0.0
-0.02207217485998474 0.18654970967885523 0.0
-0.07656891276578921 0.41354495954860615 0.0
-0.18149140657791688 0.7199984863750594 0.0
-0.35083547391604897 1.0950540211902522 0.0
-0.5963147660407948 1.5254250346921834 0.0
-0.926945805918077 1.9958654191692704 0.0
-1.34872857339788 2.4897095894668264 0.0
-1.8644339529368412 2.9894628696496954 0.0
-2.4735055736350002 3.4774212506190945 0.0
-3.1720795189522857 3.9362985634611305 0.0
-3.953121207878249 4.349838850598481 0.0
-4.806674598471425 4.703392241191852 0.0
-5.720214885608622 4.9844339301180405 0.0
-6.679092198450555 5.183007875435566 0.0
-7.667050579419897 5.292079496133983 0.0
-8.666803859602759 5.3077848756732005 0.0
-9.66064802990035 5.22956764315324 0.0
-10.631088414377517 5.060198683030741 0.0
-11.561459427879573 4.805677975155697 0.0