# vtk DataFile Version 3.0
 vtk output
ASCII
DATASET POLYDATA
POINTS 21 float
0.0 0.0 0.0
0.4950118288582797 0.07045061596878521 0.0
0.9507134671759978 0.27620779527134964 0.0
1.3309164499760175 0.6009318194364363 0.0
1.6054278589751187 1.0188355001205485 0.0
1.7524480215913192 1.4967320075196986 0.0
1.7603016802473328 1.9966703237605274 0.0
1.6283651552647054 2.4789490329894424 0.0
1.367115872906779 2.905269115166518 0.0
0.9973003254175383 3.2417753719214755 0.0
0.5482865375372779 3.4617449568495293 0.0
0.05573187445990335 3.5477095069893076 0.0
-0.4412486032676952 3.4928423514438625 0.0
-0.90318836952338 3.3015006352614176 0.0
-1.2934035731926201 2.988879307093658 0.0
-1.5809061992143345 2.5798044483811986 0.0
-1.7428649083134893 2.1067617689674534 0.0
-1.7664181336683953 1.6073168314864723 0.0
-1.6496954517405307 1.1211318712876128 0.0
-1.40196611752439 0.6868161140684806 0.0
-1.0429029686428652 0.3388597157722519 0.0
LINES 20 60
2
0
1
2
1
2
2
2
3
2
3
4
2
4
5
2
5
6
2
6
7
2
7
8
2
8
9
2
9
10
2
10
11
2
11
12
2
12
13
2
13
14
2
14
15
2
15
16
2
16
17
2
17
18
2
18
19
2
19
20

 POINT_DATA 21
 SCALARS u float 3
 LOOKUP_TABLE default
0.0 0.0 0.0
-0.004988171141720289 0.07045061596878521 0.0
-0.049286532824002166 0.27620779527134964 0.0
-0.16908355002398237 0.6009318194364363 0.0
-0.39457214102488136 1.0188355001205485 0.0
-0.7475519784086809 1.4967320075196986 0.0
-1.2396983197526672 1.9966703237605274 0.0
-1.8716348447352946 2.4789490329894424 0.0
-2.632884127093221 2.905269115166518 0.0
-3.5026996745824617 3.2417753719214755 0.0
-4.451713462462722 3.4617449568495293 0.0
-5.444268125540097 3.5477095069893076 0.0
-6.441248603267695 3.4928423514438625 0.0
-7.40318836952338 3.3015006352614176 0.0
-8.29340357319262 2.988879307093658 0.0
-9.080906199214335 2.5798044483811986 0.0
-9.74286490831349 2.1067617689674534 0.0
-10.266418133668395 1.6073168314864723 0.0
-10.64969545174053 1.1211318712876128 0.0
-10.90196611752439 0.6868161140684806 0.0
-11.042902968642865 0.3388597157722519 0.0