# vtk DataFile Version 3.0
 vtk output
ASCII
DATASET POLYDATA
POINTS 21 float
0.0 0.0 0.0
0.49384417029756983 0.07821723252010933 0.0
0.9393474323917436 0.30521248238990284 0.0
1.2929008229850156 0.6587658729831782 0.0
1.5198960728548259 1.1042691350773437 0.0
1.5981133053749887 1.598113305374905 0.0
1.5198960728549877 2.091957475672492 0.0
1.2929008229852617 2.5374607377667 0.0
0.9393474323920183 2.891014128360004 0.0
0.49384417029787553 3.1180093782298597 0.0
3.232969447708456e-13 3.196226610750077 0.0
-0.4938441702972547 3.1180093782300147 0.0
-0.9393474323914628 2.891014128360289 0.0
-1.2929008229848007 2.5374607377670797 0.0
-1.5198960728546655 2.091957475672942 0.0
-1.5981133053748415 1.5981133053753829 0.0
-1.5198960728547775 1.104269135077806 0.0
-1.292900822985045 0.6587658729836002 0.0
-0.9393474323918092 0.305212482390289 0.0
-0.4938441702976384 0.07821723252049 0.0
-7.815970093361102e-14 3.1290041963582405e-13 0.0
LINES 20 60
2
0
1
2
1
2
2
2
3
2
3
4
2
4
5
2
5
6
2
6
7
2
7
8
2
8
9
2
9
10
2
10
11
2
11
12
2
12
13
2
13
14
2
14
15
2
15
16
2
16
17
2
17
18
2
18
19
2
19
20

 POINT_DATA 21
 SCALARS u float 3
 LOOKUP_TABLE default
0.0 0.0 0.0
-0.006155829702430171 0.07821723252010933 0.0
-0.06065256760825645 0.30521248238990284 0.0
-0.2070991770149844 0.6587658729831782 0.0
-0.4801039271451742 1.1042691350773437 0.0
-0.9018866946250113 1.598113305374905 0.0
-1.4801039271450123 2.091957475672492 0.0
-2.2070991770147383 2.5374607377667 0.0
-3.0606525676079817 2.891014128360004 0.0
-4.0061558297021245 3.1180093782298597 0.0
-4.999999999999677 3.196226610750077 0.0
-5.993844170297255 3.1180093782300147 0.0
-6.939347432391463 2.891014128360289 0.0
-7.792900822984801 2.5374607377670797 0.0
-8.519896072854666 2.091957475672942 0.0
-9.098113305374842 1.5981133053753829 0.0
-9.519896072854777 1.104269135077806 0.0
-9.792900822985045 0.6587658729836002 0.0
-9.93934743239181 0.305212482390289 0.0
-9.993844170297638 0.07821723252049 0.0
-10.000000000000078 3.1290041963582405e-13 0.0