# vtk DataFile Version 3.0
 vtk output
ASCII
DATASET POLYDATA
POINTS 21 float
0.0 0.0 0.0
0.49605735065723966 0.062666616782146 0.0
0.9609455936013648 0.24672889312448662 0.0
1.365454090788847 0.5406215192707114 0.0
1.6841660856632248 0.9258781406585789 0.0
1.897055731445809 1.3782916668915661 0.0
1.990746388738763 1.869435292255893 0.0
1.9593511289741736 2.3684486564700333 0.0
1.804842631786764 2.843976914617631 0.0
1.5369292342973493 3.2661408773686915 0.0
1.172444920586719 3.6084144303331165 0.0
0.7342915805648316 3.849291267384055 0.0
0.25000000000054 3.973636210966577 0.0
-0.24999999999946 3.9736362109666987 0.0
-0.7342915805638084 3.849291267384399 0.0
-1.1724449205857965 3.6084144303336427 0.0
-1.5369292342965792 3.266140877369381 0.0
-1.804842631786176 2.8439769146184353 0.0
-1.959351128973763 2.368448656470895 0.0
-1.990746388738529 1.8694352922567659 0.0
-1.897055731445791 1.3782916668923972 0.0
LINES 20 60
2
0
1
2
1
2
2
2
3
2
3
4
2
4
5
2
5
6
2
6
7
2
7
8
2
8
9
2
9
10
2
10
11
2
11
12
2
12
13
2
13
14
2
14
15
2
15
16
2
16
17
2
17
18
2
18
19
2
19
20

 POINT_DATA 21
 SCALARS u float 3
 LOOKUP_TABLE default
0.0 0.0 0.0
-0.003942649342760318 0.062666616782146 0.0
-0.03905440639863525 0.24672889312448662 0.0
-0.13454590921115295 0.5406215192707114 0.0
-0.31583391433677527 0.9258781406585789 0.0
-0.602944268554191 1.3782916668915661 0.0
-1.009253611261237 1.869435292255893 0.0
-1.5406488710258264 2.3684486564700333 0.0
-2.195157368213236 2.843976914617631 0.0
-2.9630707657026507 3.2661408773686915 0.0
-3.827555079413281 3.6084144303331165 0.0
-4.765708419435168 3.849291267384055 0.0
-5.74999999999946 3.973636210966577 0.0
-6.74999999999946 3.9736362109666987 0.0
-7.734291580563808 3.849291267384399 0.0
-8.672444920585797 3.6084144303336427 0.0
-9.53692923429658 3.266140877369381 0.0
-10.304842631786176 2.8439769146184353 0.0
-10.959351128973763 2.368448656470895 0.0
-11.490746388738529 1.8694352922567659 0.0
-11.897055731445791 1.3782916668923972 0.0