# vtk DataFile Version 3.0
 vtk output
ASCII
DATASET POLYDATA
POINTS 21 float
0.0 0.0 0.0
0.4984586668665645 0.0392295478639163 0.0
0.9846436270654061 0.1559522297918549 0.0
1.4465833933210603 0.3472939459743738 0.0
1.8729034754981295 0.6085432283323103 0.0
2.253106458298182 0.9332672524973592 0.0
2.577830482463331 1.3134702352973258 0.0
2.8390797648213724 1.739790317474331 0.0
3.030421481003998 2.2017300837299407 0.0
3.147144162932052 2.687915043928755 0.0
3.18637371079609 3.18637371079531 0.0
3.147144162932288 3.6848323776618837 0.0
3.030421481004462 4.171017337860753 0.0
2.8390797648220496 4.632957104116451 0.0
2.577830482464206 5.059277186293577 0.0
2.253106458299232 5.439480169093693 0.0
1.8729034754993208 5.764204193258908 0.0
1.4465833933223609 6.025453475617024 0.0
0.9846436270667827 6.216795191799726 0.0
0.49845866686798423 6.3335178737278435 0.0
1.4335199693960021e-12 6.372747421591941 0.0
LINES 20 60
2
0
1
2
1
2
2
2
3
2
3
4
2
4
5
2
5
6
2
6
7
2
7
8
2
8
9
2
9
10
2
10
11
2
11
12
2
12
13
2
13
14
2
14
15
2
15
16
2
16
17
2
17
18
2
18
19
2
19
20

 POINT_DATA 21
 SCALARS u float 3
 LOOKUP_TABLE default
0.0 0.0 0.0
-0.00154133313343554 0.0392295478639163 0.0
-0.015356372934593914 0.1559522297918549 0.0
-0.05341660667893974 0.3472939459743738 0.0
-0.12709652450187042 0.6085432283323103 0.0
-0.2468935417018182 0.9332672524973592 0.0
-0.422169517536669 1.3134702352973258 0.0
-0.6609202351786275 1.739790317474331 0.0
-0.9695785189960022 2.2017300837299407 0.0
-1.3528558370679482 2.687915043928755 0.0
-1.8136262892039097 3.18637371079531 0.0
-2.352855837067712 3.6848323776618837 0.0
-2.969578518995538 4.171017337860753 0.0
-3.6609202351779504 4.632957104116451 0.0
-4.422169517535794 5.059277186293577 0.0
-5.246893541700768 5.439480169093693 0.0
-6.127096524500679 5.764204193258908 0.0
-7.053416606677639 6.025453475617024 0.0
-8.015356372933217 6.216795191799726 0.0
-9.001541333132016 6.3335178737278435 0.0
-9.999999999998566 6.372747421591941 0.0