# vtk DataFile Version 4.2
 vtk output
ASCII
DATASET STRUCTURED_POINTS
DIMENSIONS 31 31 31
SPACING 0.00375 0.00375 0.00375
ORIGIN -0.057493705 -0.057493705 -0.0575
POINT_DATA  29791
SCALARS u float 1
LOOKUP_TABLE default
0.04960263520479202 0.04747458174824715 0.04546748101711273 0.043554551899433136 0.041750434786081314 0.040090370923280716 0.038536034524440765 0.03711242973804474 0.035842008888721466 0.03471545875072479 0.03375062718987465 0.03293648734688759 0.032279759645462036 0.03179360553622246 0.0314796045422554 0.031336404383182526 0.03136422485113144 0.03156310319900513 0.03193391114473343 0.03247842192649841 0.03319147974252701 0.03406023234128952 0.035085197538137436 0.036266569048166275 0.0375746451318264 0.03903559222817421 0.04063453525304794 0.04235590249300003 0.044175468385219574 0.04613872617483139 0.04817599430680275 0.04747457802295685 0.045321013778448105 0.04324852675199509 0.041296835988759995 0.03946318104863167 0.03772569075226784 0.036145493388175964 0.03469265624880791 0.033389054238796234 0.03222141042351723 0.03122037835419178 0.030380185693502426 0.029702607542276382 0.029202310368418694 0.028879471123218536 0.02873091585934162 0.028757832944393158 0.028960250318050385 0.02934030443429947 0.029901469126343727 0.030635733157396317 0.03152773529291153 0.03258684650063515 0.03380408510565758 0.035166893154382706 0.0366743765771389 0.03829582408070564 0.04005831852555275 0.041949283331632614 0.04393027722835541 0.04603789001703262 0.04546748474240303 0.04324852675199509 0.04114658758044243 0.03913744539022446 0.037250716239213943 0.03549632802605629 0.03385983407497406 0.03235449641942978 0.031008867546916008 0.029810314998030663 0.02877899818122387 0.02791212871670723 0.02721349149942398 0.026704221963882446 0.02637392282485962 0.02622085250914097 0.026246830821037292 0.026456208899617195 0.026852859184145927 0.02743510715663433 0.028196049854159355 0.029116321355104446 0.030208803713321686 0.031452473253011703 0.03284784033894539 0.0343819186091423 0.03607317805290222 0.03787866607308388 0.03979826346039772 0.041842833161354065 0.04398709908127785 0.043554551899433136 0.041296835988759995 0.03913744539022446 0.037098560482263565 0.0351545512676239 0.03334905579686165 0.03167608380317688 0.030146710574626923 0.02876015566289425 0.027527349069714546 0.02646500989794731 0.02556847408413887 0.024844245985150337 0.02431054227054119 0.023970501497387886 0.023813780397176743 0.023838896304368973 0.02406182326376438 0.02447785809636116 0.025069313123822212 0.0258486270904541 0.026793641969561577 0.02791731059551239 0.02919725701212883 0.030644655227661133 0.032227251678705215 0.0339512974023819 0.035792432725429535 0.03776818886399269 0.039860744029283524 0.04204000160098076 0.041750434786081314 0.03946318477392197 0.037250716239213943 0.0351545512676239 0.03319164738059044 0.03133097290992737 0.029602723196148872 0.02803334966301918 0.026608427986502647 0.025340313091874123 0.024246957153081894 0.023324785754084587 0.02259545959532261 0.022041533142328262 0.021676497533917427 0.02151784487068653 0.021542934700846672 0.02178197167813778 0.022208387032151222 0.022812115028500557 0.02361915074288845 0.024603702127933502 0.025760522112250328 0.02707517147064209 0.02855696715414524 0.030176794156432152 0.03192972391843796 0.03383794054389 0.035859737545251846 0.03797275945544243 0.04022757336497307 0.040090370923280716 0.03772569075226784 0.03549633175134659 0.03334905579686165 0.03133097663521767 0.02943718060851097 0.027677305042743683 0.02606031484901905 0.024594616144895554 0.02329416200518608 0.0221748985350132 0.021220309659838676 0.020457696169614792 0.019892191514372826 0.01951768435537815 0.019358694553375244 0.019384922459721565 0.019625673070549965 0.02005544863641262 0.020700614899396896 0.021516647189855576 0.02252553030848503 0.023713041096925735 0.025064844638109207 0.02658236399292946 0.028248589485883713 0.030059577897191048 0.031999871134757996 0.03405372425913811 0.036239996552467346 0.03851407393813133 0.038536034524440765 0.036145493388175964 0.03385983407497406 0.03167608380317688 0.029602723196148872 0.027677306905388832 0.025880539789795876 0.0242244191467762 0.022722352296113968 0.0213849525898695 0.0202278271317482 0.019250070676207542 0.018468784168362617 0.017883414402604103 0.017506593838334084 0.01733330823481083 0.017364297062158585 0.017610762268304825 0.01806134730577469 0.018706876784563065 0.019560201093554497 0.020600756630301476 0.02181178890168667 0.02319691888988018 0.02475215680897236 0.02646535076200962 0.028320079669356346 0.03029637411236763 0.032390203326940536 0.03461837396025658 0.036932285875082016 0.03711242973804474 0.03469265624880791 0.03235449641942978 0.030146710574626923 0.02803334966301918 0.0260603129863739 0.0242244191467762 0.02253076061606407 0.02099374681711197 0.019622700288891792 0.018427029252052307 0.01743738353252411 0.01662760227918625 0.01603005826473236 0.015638282522559166 0.015462116338312626 0.015496866777539253 0.015740839764475822 0.016206668689846992 0.0168777909129858 0.017749276012182236 0.018818557262420654 0.020062876865267754 0.02148277312517166 0.023073097690939903 0.024821985512971878 0.026713812723755836 0.028728226199746132 0.030879413709044456 0.033139243721961975 0.03549744933843613 0.035842008888721466 0.033389054238796234 0.031008867546916008 0.02876015566289425 0.026608427986502647 0.024594616144895554 0.022722352296113968 0.020993748679757118 0.019424255937337875 0.018024124205112457 0.016800202429294586 0.01577828824520111 0.014955163933336735 0.014338401146233082 0.013936326839029789 0.013751205056905746 0.013790237717330456 0.01405180525034666 0.014523355290293694 0.01521405391395092 0.016099853441119194 0.017194554209709167 0.01847059093415737 0.0199247058480978 0.021549878641963005 0.023334365338087082 0.025261180475354195 0.02731054648756981 0.029502252116799355 0.0317922905087471 0.03420344367623329 0.03471545875072479 0.03222141042351723 0.029810314998030663 0.027527349069714546 0.025340313091874123 0.02329416200518608 0.0213849525898695 0.019622700288891792 0.018024126067757607 0.016598330810666084 0.01535115484148264 0.014305883087217808 0.013459169305860996 0.01282518170773983 0.012418584898114204 0.012229131534695625 0.012268993072211742 0.012528796680271626 0.013017420656979084 0.013716481626033783 0.014627289026975632 0.015746332705020905 0.017048057168722153 0.018535833805799484 0.020194480195641518 0.022014344111084938 0.0239788256585598 0.026063961908221245 0.02829083986580372 0.030612768605351448 0.03305908292531967 0.03375062718987465 0.03122037649154663 0.02877899818122387 0.02646500989794731 0.024246957153081894 0.0221748985350132 0.020227830857038498 0.018427029252052307 0.016800202429294586 0.01535115484148264 0.014086912386119366 0.013012906536459923 0.012151126749813557 0.011510839685797691 0.011084684170782566 0.010895787738263607 0.010934335179626942 0.011198945343494415 0.011702005751430988 0.012421430088579655 0.013353941962122917 0.01448462251573801 0.01581687666475773 0.017336681485176086 0.019022628664970398 0.02086096815764904 0.02285640500485897 0.0249747596681118 0.02722879685461521 0.029582468792796135 0.03205929696559906 0.03293648362159729 0.030380185693502426 0.02791212871670723 0.02556847222149372 0.023324785754084587 0.021220309659838676 0.019250070676207542 0.01743738353252411 0.01577828638255596 0.014305880293250084 0.013012906536459923 0.011922475881874561 0.011049013584852219 0.010391470976173878 0.009960598312318325 0.009769518859684467 0.009808742441236973 0.010082480497658253 0.010585268028080463 0.011318009346723557 0.0122688515111804 0.013427513651549816 0.0147749874740839 0.01631912589073181 0.01803070865571499 0.01989649422466755 0.021913999691605568 0.024073554202914238 0.026346631348133087 0.028729528188705444 0.031230902299284935 0.032279759645462036 0.029702607542276382 0.02721349149942398 0.024844247847795486 0.02259545959532261 0.020457696169614792 0.018468784168362617 0.016627604141831398 0.01495516300201416 0.013459168374538422 0.012151125818490982 0.011049013584852219 0.010161538608372211 0.00949208065867424 0.009057622402906418 0.008859931491315365 0.008897683583199978 0.00918092206120491 0.009693869389593601 0.010432514362037182 0.011396500281989574 0.012571167200803757 0.013943607918918133 0.015502612106502056 0.017228422686457634 0.019126679748296738 0.02115926705300808 0.02333771251142025 0.02563081867992878 0.028046146035194397 0.030566396191716194 0.03179360553622246 0.029202310368418694 0.026704220101237297 0.02431054227054119 0.02204153686761856 0.019892191514372826 0.017883414402604103 0.01603005826473236 0.014338401146233082 0.01282518170773983 0.011510839685797691 0.01039146725088358 0.00949208065867424 0.008821033872663975 0.008381782099604607 0.008178294636309147 0.008216102607548237 0.008499957621097565 0.009019557386636734 0.009770729579031467 0.010746429674327374 0.01192562747746706 0.013318676501512527 0.014888820238411427 0.01663651131093502 0.01854240708053112 0.020606156438589096 0.02278802916407585 0.02509826421737671 0.027534261345863342 0.030068164691329002 0.0314796045422554 0.028879471123218536 0.02637392468750477 0.023970499634742737 0.021676497533917427 0.01951768435537815 0.017506591975688934 0.015638284385204315 0.013936325907707214 0.012418581172823906 0.011084684170782566 0.009960598312318325 0.009057622402906418 0.008381782099604607 0.00793510489165783 0.007733342703431845 0.007771586999297142 0.00806061364710331 0.00857875868678093 0.009337139315903187 0.01032064575701952 0.01151507068425417 0.012904603034257889 0.014490317553281784 0.016252504661679268 0.018164299428462982 0.020230485126376152 0.022437935695052147 0.02476334758102894 0.02720150537788868 0.029742559418082237 0.03133640065789223 0.02873091585934162 0.026220854371786118 0.023813780397176743 0.02151784487068653 0.019358694553375244 0.01733330637216568 0.015462118200957775 0.013751205056905746 0.012229131534695625 0.010895787738263607 0.009769518859684467 0.008859931491315365 0.008178294636309147 0.007733342703431845 0.007527166046202183 0.00757434731349349 0.007859116420149803 0.008383705280721188 0.00914318673312664 0.010124963708221912 0.011319160461425781 0.012717192061245441 0.014311610721051693 0.01607346162199974 0.01799888163805008 0.020069673657417297 0.022281469777226448 0.024609753862023354 0.027049219235777855 0.029593758285045624 0.03136422485113144 0.02875783108174801 0.026246830821037292 0.023838896304368973 0.021542934700846672 0.019384922459721565 0.017364300787448883 0.015496866777539253 0.013790234923362732 0.012268994003534317 0.010934335179626942 0.009808742441236973 0.008897684514522552 0.008216102607548237 0.007771586999297142 0.00757434731349349 0.007609904278069735 0.007899055257439613 0.008424165658652782 0.009182509034872055 0.010165713727474213 0.011359438300132751 0.012756075710058212 0.014348642900586128 0.01610776036977768 0.018027396872639656 0.020095834508538246 0.022306207567453384 0.024634767323732376 0.027075549587607384 0.029621286317706108 0.03156310319900513 0.028960250318050385 0.026456208899617195 0.02406182326376438 0.02178197167813778 0.019625673070549965 0.017610765993595123 0.015740839764475822 0.014051803387701511 0.012528798542916775 0.011198945343494415 0.010082480497658253 0.009180922992527485 0.00849995668977499 0.00806061364710331 0.007859116420149803 0.007899055257439613 0.008180733770132065 0.008704664185643196 0.009455178864300251 0.010435366071760654 0.011630760505795479 0.013019070029258728 0.014599268324673176 0.016354260966181755 0.018269158899784088 0.020340552553534508 0.022537430748343468 0.024849839508533478 0.02728339284658432 0.02982555888593197 0.03193391114473343 0.02934030443429947 0.026852859184145927 0.02447785809636116 0.022208383306860924 0.02005544863641262 0.01806134544312954 0.016206668689846992 0.014523354358971119 0.013017424382269382 0.011702008545398712 0.010585267096757889 0.009693865664303303 0.009019557386636734 0.00857875868678093 0.008383705280721188 0.008424168452620506 0.008704664185643196 0.009223086759448051 0.009964044205844402 0.01094086840748787 0.012118359096348286 0.013499205932021141 0.015073948539793491 0.016812704503536224 0.018718531355261803 0.020766325294971466 0.022955095395445824 0.025263004004955292 0.0276802908629179 0.030207326635718346 0.03247842192649841 0.029901469126343727 0.02743510715663433 0.025069313123822212 0.022812115028500557 0.020700618624687195 0.018706876784563065 0.0168777909129858 0.015214052982628345 0.013716481626033783 0.012421431951224804 0.011318008415400982 0.010432514362037182 0.009770729579031467 0.009337140247225761 0.00914318673312664 0.009182505309581757 0.009455179795622826 0.009964044205844402 0.010709304362535477 0.011668707244098186 0.012829714454710484 0.01419974397867918 0.015746280550956726 0.01748128980398178 0.019363664090633392 0.021392276510596275 0.02355949580669403 0.025860430672764778 0.028257694095373154 0.030761340633034706 0.03319147974252701 0.030635733157396317 0.028196049854159355 0.0258486270904541 0.02361915074288845 0.021516647189855576 0.019560199230909348 0.017749276012182236 0.016099853441119194 0.014627289026975632 0.013353941962122917 0.0122688515111804 0.011396500281989574 0.010746425949037075 0.01032064575701952 0.010124963708221912 0.010165716521441936 0.010435366071760654 0.01094086840748787 0.011668707244098186 0.012610451318323612 0.013754579238593578 0.0151100754737854 0.016640599817037582 0.018334904685616493 0.020201198756694794 0.022217728197574615 0.02435203455388546 0.026626788079738617 0.029002290219068527 0.03147995471954346 0.03406023234128952 0.03152773156762123 0.029116321355104446 0.026793641969561577 0.024603700265288353 0.02252553030848503 0.020600756630301476 0.018818555399775505 0.017194554209709167 0.015746332705020905 0.01448462251573801 0.013427513651549816 0.012571165338158607 0.01192562747746706 0.01151507068425417 0.011319160461425781 0.011359437368810177 0.011630759574472904 0.012118359096348286 0.012829714454710484 0.013754579238593578 0.01489214412868023 0.01621611975133419 0.017720721662044525 0.01939719170331955 0.02123156189918518 0.023207737132906914 0.02532310225069523 0.027566801756620407 0.029917793348431587 0.03236725926399231 0.035085197538137436 0.03258684650063515 0.030208803713321686 0.02791731059551239 0.025760525837540627 0.023713041096925735 0.02181178890168667 0.020062878727912903 0.01847059093415737 0.017048057168722153 0.01581687666475773 0.0147749874740839 0.013943607918918133 0.013318676501512527 0.012904603034257889 0.012717192061245441 0.012756075710058212 0.013019069097936153 0.013499205932021141 0.01419974397867918 0.015110074542462826 0.01621611975133419 0.01751723326742649 0.01899503916501999 0.020641759037971497 0.022444268688559532 0.02438473515212536 0.02647240087389946 0.028679868206381798 0.030998140573501587 0.033422064036130905 0.036266569048166275 0.03380408510565758 0.031452473253011703 0.02919725701212883 0.02707517147064209 0.025064844638109207 0.02319691888988018 0.02148277312517166 0.0199247058480978 0.018535833805799484 0.017336679622530937 0.01631912589073181 0.015502613969147205 0.014888817444443703 0.01449031662195921 0.014311610721051693 0.014348643831908703 0.014599268324673176 0.015073953196406364 0.015746280550956726 0.016640597954392433 0.017720721662044525 0.018995041027665138 0.020442146807909012 0.02205517143011093 0.02382202446460724 0.025726988911628723 0.02777882292866707 0.029950223863124847 0.03222452849149704 0.03462100028991699 0.0375746451318264 0.035166893154382706 0.03284784033894539 0.030644655227661133 0.02855696901679039 0.02658236399292946 0.024752158671617508 0.023073097690939903 0.021549878641963005 0.020194480195641518 0.01902262680232525 0.01803070865571499 0.017228424549102783 0.01663651131093502 0.01625250279903412 0.01607346162199974 0.01610775850713253 0.016354260966181755 0.016812704503536224 0.017481287941336632 0.018334904685616493 0.0193971935659647 0.020641755312681198 0.02205517143011093 0.023631425574421883 0.025359492748975754 0.027225660160183907 0.029235010966658592 0.031377360224723816 0.03361278027296066 0.03597654402256012 0.03903559222817421 0.0366743803024292 0.0343819186091423 0.032227251678705215 0.030176790431141853 0.028248591348528862 0.02646535076200962 0.024821985512971878 0.02333436720073223 0.022014345973730087 0.02086096815764904 0.0198964960873127 0.019126679748296738 0.01854240708053112 0.018164299428462982 0.01799888163805008 0.018027396872639656 0.018269158899784088 0.018718531355261803 0.019363664090633392 0.020201196894049644 0.02123156189918518 0.022444264963269234 0.02382202260196209 0.025359490886330605 0.02705192193388939 0.028886761516332626 0.030847853049635887 0.032948341220617294 0.03514140099287033 0.037453845143318176 0.04063453525304794 0.03829582408070564 0.03607317805290222 0.0339512974023819 0.03192972391843796 0.030059577897191048 0.028320077806711197 0.026713812723755836 0.025261180475354195 0.023978829383850098 0.02285640500485897 0.021913999691605568 0.02115926705300808 0.020606156438589096 0.020230485126376152 0.020069673657417297 0.020095834508538246 0.02034055069088936 0.020766325294971466 0.021392276510596275 0.022217728197574615 0.023207737132906914 0.02438473515212536 0.025726988911628723 0.027225660160183907 0.028886761516332626 0.030685998499393463 0.032600607722997665 0.03464066609740257 0.03681684285402298 0.03906997665762901 0.04235590621829033 0.04005831852555275 0.03787866607308388 0.035792432725429535 0.03383794054389 0.031999871134757996 0.03029637411236763 0.028728226199746132 0.02731054648756981 0.026063961908221245 0.0249747596681118 0.024073556065559387 0.02333771251142025 0.02278802916407585 0.022437935695052147 0.022281469777226448 0.022306207567453384 0.02253742702305317 0.022955095395445824 0.02355949580669403 0.02435203455388546 0.02532310225069523 0.02647240273654461 0.02777882292866707 0.029235010966658592 0.030847853049635887 0.032600607722997665 0.03448552265763283 0.036482878029346466 0.0386003740131855 0.04082189500331879 0.044175468385219574 0.041949283331632614 0.03979826346039772 0.03776818886399269 0.035859741270542145 0.03405372425913811 0.032390203326940536 0.030879415571689606 0.029502252116799355 0.02829083986580372 0.02722879685461521 0.026346631348133087 0.02563081867992878 0.02509826421737671 0.02476334758102894 0.024609751999378204 0.024634767323732376 0.024849839508533478 0.025263004004955292 0.02586042881011963 0.02662678435444832 0.027566799893975258 0.02867986634373665 0.029950225725769997 0.031377363950014114 0.032948341220617294 0.03464066609740257 0.036482878029346466 0.03844686970114708 0.040503885596990585 0.04269383102655411 0.04613872617483139 0.043930280953645706 0.041842833161354065 0.039860744029283524 0.03797276318073273 0.036239996552467346 0.03461837396025658 0.033139247447252274 0.0317922905087471 0.030612768605351448 0.029582468792796135 0.028729526326060295 0.028046146035194397 0.027534261345863342 0.02720150537788868 0.027049219235777855 0.027075547724962234 0.02728339284658432 0.0276802908629179 0.028257694095373154 0.029002292081713676 0.029917795211076736 0.030998142436146736 0.03222452849149704 0.03361278027296066 0.03514140099287033 0.03681684657931328 0.0386003777384758 0.040503885596990585 0.04254448786377907 0.04465357959270477 0.04817599430680275 0.04603789001703262 0.04398709908127785 0.04204000160098076 0.04022757336497307 0.03851407393813133 0.036932285875082016 0.03549744933843613 0.03420344367623329 0.03305907920002937 0.03205929696559906 0.031230904161930084 0.030566394329071045 0.030068162828683853 0.029742559418082237 0.029593758285045624 0.029621286317706108 0.02982555888593197 0.030207326635718346 0.030761340633034706 0.03147995471954346 0.03236725926399231 0.0334220714867115 0.03462100028991699 0.03597654029726982 0.037453845143318176 0.03906997665762901 0.04082189500331879 0.04269383102655411 0.04465357959270477 0.04675694927573204 0.04748615249991417 0.04531046003103256 0.04325747489929199 0.041297636926174164 0.039448775351047516 0.03774409741163254 0.03614918887615204 0.0346829779446125 0.03337705880403519 0.03221682831645012 0.03122122958302498 0.030382882803678513 0.029705895110964775 0.029202409088611603 0.02887710928916931 0.02872905135154724 0.028757767751812935 0.028963617980480194 0.029347741976380348 0.029911192134022713 0.0306454598903656 0.031540051102638245 0.032598644495010376 0.033813778311014175 0.035159483551979065 0.03666137903928757 0.03830289468169212 0.04006973281502724 0.04193347692489624 0.043944451957941055 0.04602799564599991 0.04531046003103256 0.04310749098658562 0.040983814746141434 0.03898327797651291 0.03710053861141205 0.035314787179231644 0.03368925675749779 0.03219327703118324 0.0308489091694355 0.02964548021554947 0.028609344735741615 0.027742505073547363 0.027042653411626816 0.026523083448410034 0.026188137009739876 0.026034558191895485 0.026062382385134697 0.026271631941199303 0.026666071265935898 0.02724815532565117 0.028005722910165787 0.028926581144332886 0.030022460967302322 0.031276214867830276 0.03268299251794815 0.03423295170068741 0.035902127623558044 0.03771094232797623 0.03965312987565994 0.041682299226522446 0.04384131357073784 0.04325747489929199 0.040983814746141434 0.03882896155118942 0.03676600381731987 0.03482581675052643 0.03302207589149475 0.03133368119597435 0.02978297509253025 0.02839069627225399 0.027153989300131798 0.02608388103544712 0.025187630206346512 0.024463646113872528 0.023933814838528633 0.023591583594679832 0.02343299239873886 0.0234599057585001 0.023676427081227303 0.024088311940431595 0.024694595485925674 0.02548159286379814 0.026433764025568962 0.027565689757466316 0.028849003836512566 0.030291518196463585 0.031871892511844635 0.03361499682068825 0.035472702234983444 0.03744402900338173 0.03954388573765755 0.041740782558918 0.041297636926174164 0.03898327797651291 0.03676600381731987 0.03466903045773506 0.03267014026641846 0.03080739825963974 0.029080670326948166 0.027501622214913368 0.026064785197377205 0.02479025535285473 0.023685958236455917 0.022757062688469887 0.022003019228577614 0.021447686478495598 0.021094942465424538 0.020932184532284737 0.020958181470632553 0.021189704537391663 0.021621854975819588 0.022237861528992653 0.023047327995300293 0.024026652798056602 0.025193162262439728 0.026517704129219055 0.028015365824103355 0.02965153008699417 0.031427863985300064 0.033326033502817154 0.03535892069339752 0.03750847652554512 0.03974582627415657 0.039448775351047516 0.03710053861141205 0.03482581675052643 0.03267014026641846 0.03064563125371933 0.02872345596551895 0.02693854831159115 0.02531307004392147 0.023834433406591415 0.022520309314131737 0.021381638944149017 0.020423827692866325 0.019662577658891678 0.019085848703980446 0.018705740571022034 0.01853994093835354 0.018565893173217773 0.018815597519278526 0.01925956830382347 0.019887760281562805 0.02073005586862564 0.02175254561007023 0.022956043481826782 0.024319883435964584 0.025854721665382385 0.027532661333680153 0.029343008995056152 0.03131113573908806 0.033395614475011826 0.0355692096054554 0.03788488358259201 0.037744101136922836 0.035314787179231644 0.03302207589149475 0.03080739825963974 0.028723454102873802 0.026767021045088768 0.024945303797721863 0.023266658186912537 0.021743109449744225 0.020391805097460747 0.019224703311920166 0.01822865568101406 0.017432020977139473 0.016841553151607513 0.01644943468272686 0.016283271834254265 0.01631039008498192 0.01656281016767025 0.017012039199471474 0.01768600381910801 0.018538687378168106 0.0195893757045269 0.0208274032920599 0.02223319374024868 0.02380731701850891 0.02553549036383629 0.027411727234721184 0.029416056349873543 0.03153305873274803 0.03378646820783615 0.036126650869846344 0.03614918887615204 0.03368925675749779 0.03133368119597435 0.029080670326948166 0.02693854831159115 0.024945303797721863 0.02308039180934429 0.02135864831507206 0.019794698804616928 0.018400851637125015 0.01719239540398121 0.016169309616088867 0.015351406298577785 0.014737999066710472 0.014342201873660088 0.01416014414280653 0.014192702248692513 0.014451643452048302 0.014925035648047924 0.015600367449223995 0.016494285315275192 0.017581747844815254 0.0188465379178524 0.02028978429734707 0.021906675770878792 0.02368631213903427 0.0256098210811615 0.027656033635139465 0.02981986664235592 0.03211655467748642 0.03449763357639313 0.0346829779446125 0.03219327703118324 0.02978297509253025 0.027501624077558517 0.02531307004392147 0.023266656324267387 0.02135864831507206 0.01959521882236004 0.017992043867707253 0.016559703275561333 0.015307438559830189 0.014269487001001835 0.013420087285339832 0.012790265493094921 0.012381559237837791 0.012195052579045296 0.012231841683387756 0.012489496730268002 0.012976273894309998 0.013684116303920746 0.014597168192267418 0.015717657282948494 0.01702018454670906 0.018503226339817047 0.020160702988505363 0.02197979763150215 0.023943765088915825 0.026031585410237312 0.028257569298148155 0.030591672286391258 0.033023227006196976 0.03337705880403519 0.03084891103208065 0.02839069627225399 0.026064785197377205 0.023834433406591415 0.021743109449744225 0.01979469694197178 0.017992043867707253 0.01635192707180977 0.014885928481817245 0.01360200997442007 0.012528352439403534 0.011658335104584694 0.011010908521711826 0.010583316907286644 0.010391343384981155 0.010430915281176567 0.010706123895943165 0.01120761688798666 0.01193242147564888 0.012863542884588242 0.014014419168233871 0.015353298746049404 0.016875600442290306 0.01857348158955574 0.02043384686112404 0.022438090294599533 0.024564620107412338 0.026834601536393166 0.029200952500104904 0.03168787434697151 0.03221682831645012 0.02964548021554947 0.027153989300131798 0.024790257215499878 0.022520309314131737 0.020391805097460747 0.018400853499770164 0.016559703275561333 0.014885928481817245 0.013389469124376774 0.0120775755494833 0.0109763378277421 0.010084197856485844 0.009414157830178738 0.008981699123978615 0.00877799279987812 0.008820855990052223 0.009100206196308136 0.009611992165446281 0.010356036946177483 0.01131775975227356 0.012495211325585842 0.013861419633030891 0.015421224758028984 0.01715722121298313 0.019057538360357285 0.021103592589497566 0.023270128294825554 0.02557959221303463 0.02798214741051197 0.030509119853377342 0.031221231445670128 0.028609344735741615 0.02608388103544712 0.023685958236455917 0.021381638944149017 0.019224703311920166 0.01719239354133606 0.015307438559830189 0.01360200997442007 0.012077574618160725 0.010743462480604649 0.009607164189219475 0.008694571442902088 0.008017177693545818 0.00757230119779706 0.00736602395772934 0.00740808667615056 0.007695029955357313 0.00822412222623825 0.00898476131260395 0.00997171550989151 0.011166159994900227 0.012568240985274315 0.01416369155049324 0.015931354835629463 0.017853040248155594 0.01993429847061634 0.02213919535279274 0.024479834362864494 0.026917582377791405 0.02947760373353958 0.030382882803678513 0.027742503210902214 0.025187630206346512 0.022757062688469887 0.020423827692866325 0.01822865568101406 0.016169309616088867 0.014269487001001835 0.012528352439403534 0.010976335033774376 0.00960716512054205 0.008461741730570793 0.007533377967774868 0.006834754254668951 0.006379751488566399 0.0061708432622253895 0.006214546505361795 0.0065017519518733025 0.007041701581329107 0.00781517755240202 0.008820703253149986 0.010050359182059765 0.01147021260112524 0.013095066882669926 0.014892845414578915 0.016846057027578354 0.018953021615743637 0.021201973780989647 0.023563308641314507 0.026032879948616028 0.02862020581960678 0.029705895110964775 0.027042653411626816 0.024463646113872528 0.022003019228577614 0.019662577658891678 0.017432020977139473 0.015351406298577785 0.013420087285339832 0.01165833417326212 0.010084200650453568 0.008694571442902088 0.0075333816930651665 0.006582008674740791 0.005877798888832331 0.005413395818322897 0.005202509928494692 0.005245965905487537 0.005537993740290403 0.0060865492559969425 0.006879968103021383 0.007894535548985004 0.009145760908722878 0.010591062717139721 0.01223792601376772 0.01404995284974575 0.016040315851569176 0.018164852634072304 0.020437346771359444 0.02282136306166649 0.025326618924736977 0.027934622019529343 0.029202409088611603 0.026523083448410034 0.023933814838528633 0.021447686478495598 0.019085846841335297 0.016841553151607513 0.014737999066710472 0.012790265493094921 0.011010905727744102 0.009414155036211014 0.008017179556190968 0.0068347579799592495 0.005877799354493618 0.005157731473445892 0.004688805900514126 0.0044738249853253365 0.0045198844745755196 0.0048192390240728855 0.005375364329665899 0.00617208331823349 0.007203950081020594 0.008465041406452656 0.0099340183660388 0.01158819068223238 0.013429730199277401 0.015428480692207813 0.017587384209036827 0.019863033667206764 0.022267835214734077 0.024797409772872925 0.027420585975050926 0.02887710928916931 0.026188137009739876 0.023591583594679832 0.021094942465424538 0.018705742433667183 0.01644943468272686 0.014342201873660088 0.012381557375192642 0.010583315044641495 0.008981701917946339 0.00757230119779706 0.006379751488566399 0.005413395818322897 0.004688805900514126 0.004214704502373934 0.003995905630290508 0.00404467573389411 0.004348821472376585 0.004908258561044931 0.005714267026633024 0.00675674295052886 0.008021761663258076 0.009494077414274216 0.011172480881214142 0.013024816289544106 0.015033197589218616 0.017194785177707672 0.01949857361614704 0.02191861718893051 0.024451423436403275 0.027084138244390488 0.028729049488902092 0.026034558191895485 0.023432988673448563 0.020932188257575035 0.01853994093835354 0.016283275559544563 0.014160145074129105 0.012195049785077572 0.010391343384981155 0.008777993731200695 0.00736602395772934 0.0061708432622253895 0.005202509928494692 0.0044738249853253365 0.003995905630290508 0.003779145423322916 0.0038285974878817797 0.0041322424076497555 0.004690697882324457 0.005498992744833231 0.00654424028