# vtk DataFile Version 3.0
vtk output
ASCII
DATASET POLYDATA
POINTS 200 float
-0.3970930265597161 -0.756748698514728 1.1196904330105784
-0.38893096264113003 -0.779129029195007 1.2429668834359446
-0.3806601099518512 -0.8014722598556634 1.3661209206647502
-0.3726085007114144 -0.8237322092557309 1.489411451981119
-0.36484373674661297 -0.8458908408236713 1.6128793590809256
-0.3574450157577014 -0.8679129788973513 1.736568277783839
-0.3504910676990953 -0.8897735129535168 1.8605129891503807
-0.34406438856330557 -0.9114403996524426 1.9847503493412026
-0.33825207721428835 -0.9328821133065149 2.109310072858404
-0.3331424411533429 -0.9540658569064983 2.234221338484271
-0.3288296873785682 -0.9749551942837167 2.359507398121309
-0.3254101213978752 -0.9955121630910329 2.4851879968092514
-0.32298374365766813 -1.0156991774517394 2.6112787303982103
-0.32165280487793946 -1.0354755406530698 2.737790754033851
-0.32152103812181354 -1.0547993600988885 2.8647309607651237
-0.3226927454697554 -1.0736260934900805 2.9921013728709225
-0.32527494804917007 -1.0919113616170337 3.1198988008599238
-0.3293700116246599 -1.109606573764312 3.2481163500620154
-0.33508327250557124 -1.1266630722614372 3.3767403079978275
-0.3425159909282762 -1.1430296136421392 3.5057532722283264
-0.3517665506251185 -1.1586513689082847 3.6351313020883786
-0.36292937708385464 -1.173472418454905 3.764846304012835
-0.3760997084265283 -1.1874335236491482 3.8948629755349407
-0.3913645150880736 -1.2004736704913213 4.025141507705711
-0.40880876816908396 -1.2125277997864607 4.155636523347373
-0.42851050085642495 -1.2235285250683703 4.286297334413626
-0.4505444778403388 -1.2334036221755647 4.417067281883475
-0.474980979015729 -1.2420793117519 4.547883797218574
-0.5018828651153715 -1.2494782769645554 4.678680153189507
-0.531310422842179 -1.255519838463896 4.809383477003774
-0.563314371886332 -1.2601170689312322 4.939915141362862
-0.5979448121187266 -1.2631833815809488 5.070191797988898
-0.6352452829137759 -1.2646274125362658 5.200124338059131
-0.6752502064047274 -1.2643525648081821 5.329618853715846
-0.7179924095436122 -1.2622604177971442 5.458576231967332
-0.7634989029054815 -1.2582507940811967 5.58689188660838
-0.8117926247300788 -1.252218207636379 5.714454567570525
-0.8628897474410826 -1.2440564423795313 5.841150091368377
-0.9168040045116279 -1.2336552794756495 5.966856141936179
-0.9735451087514779 -1.2209043488845475 6.091445073357994
-1.0331186222661624 -1.2056909285037527 6.214782912123638
-1.0955222808830922 -1.1878993747498077 6.33672934634847
-1.160754499259398 -1.1674155790482865 6.457135061363072
-1.2288026958085747 -1.144122069664793 6.575844529422323
-1.2996538596635767 -1.1179044029224943 6.692693973832112
-1.3732863835798679 -1.0886481145113294 6.8075102353031856
-1.449671441571132 -1.0562399967738463 6.920112035329034
-1.5287743883699512 -1.020571800914532 7.0303081612424325
-1.6105472609457328 -0.9815372262926169 7.137900074086537
-1.6949353491560333 -0.9390373046228969 7.242679185921386
-1.7818661721942608 -0.8929780296781694 7.344431504024451
-1.871260135013313 -0.8432761770684009 7.442934305443007
-1.963018600833207 -0.7898581792797545 7.53796017433211
-2.0570257776154346 -0.7326606963503144 7.6292784454167775
-2.15314880719786 -0.6716365805682676 7.716656645526364
-2.2512359235148627 -0.6067531662677379 7.7998646243047975
-2.351113643195552 -0.5379962486229038 7.878677001586514
-2.4525882773893684 -0.46536960259863436 7.952875308645755
-2.555444726918087 -0.3888991363627897 8.022255663129487
-2.659450239508711 -0.30863275860323 8.086629497164587
-2.7643519395924105 -0.22464099445874297 8.145829992106243
-2.8698833393247636 -0.1370185537503828 8.199714655114377
-2.975764274811287 -0.045882313141976105 8.248172554314664
-3.0817090368627613 0.04862762958810263 8.291123745896813
-3.1874287846652383 0.1463519410868781 8.328522669924471
-3.2926405438863657 0.2471130153775894 8.360356851642983
-3.3970687806742186 0.3507176754062252 8.386647422574539
-3.500453903833284 0.4569621505031009 8.4074424911879
-3.6025524497144374 0.5656325981137187 8.42281907073339
-3.7031422916297445 0.6765104566231144 8.432872777138183
-3.802022754650546 0.7893760800152012 8.43771721824473
-3.899013097961297 0.9040104580746333 8.437481582042027
-3.993954490918785 1.0201973107983067 8.43230046595325
-4.086710820865737 1.1377245299888443 8.422320087132123
-4.1771612994165395 1.2563911549753055 8.407691375254887
-4.26520528283254 1.3760022107675285 8.38857034303629
-4.350757866772637 1.496376366303507 8.365116397944496
-4.433753687554102 1.6173396312021668 8.3374903043981
-4.514138463663576 1.7387371301196282 8.305858488491644
-4.591875388125162 1.8604218098409808 8.270384046988136
-4.666942817648458 1.982262607636944 8.23123393771759
-4.739330313143952 2.104142159098978 8.188569346179625
-4.8090434956112995 2.225952826684473 8.142550805279221
-4.876098498011633 2.347601367956477 8.093334907911142
-4.9405234953366115 2.4690035132807657 8.041073916979133
-5.002357616976766 2.590086245223202 7.985913226606483
-5.061649244461829 2.710785834385022 7.927993896228093
-5.118455092480506 2.8310444474580043 7.86744627207499
-5.172840057794549 2.9508133981419418 7.80439677618934
-5.224873522787906 3.070050167362002 7.738962647917961
-5.2746307056975255 3.188720055467938 7.671254932721034
-5.322193674954187 3.3067882796748576 7.601373657392572
-5.367643382254333 3.4242305241249786 7.529414164296865
-5.411064470679653 3.5410250141151405 7.455463021163353
-5.452541448487108 3.6571552470862203 7.379599042547435
-5.492155879208487 3.7726089032954038 7.3018937592382755
-5.529990237966531 3.8873795599307903 7.222413535256447
-5.566121538836961 4.001464196177066 7.141217455672219
-5.600623678705808 4.114865371661096 7.0583601101298665
-5.633563672150464 4.2275900134587046 6.973890740055161
-5.665000146030751 4.3396502357200015 6.887855354303046
-5.694986749394715 4.45106182062786 6.800297610899052
-5.723566061903028 4.5618457526249685 6.711258938235923
-5.7507733537381025 4.672023934658263 6.620779515657518
-5.7766309213303195 4.7816241723439115 6.528899792655038
-5.80115592954643 4.890675280998038 6.435661613283775
-5.82435218192003 4.9992073472409 6.341107469500224
-5.846213328129352 5.107251556680655 6.245281634985346
-5.866727476117234 5.21483922528891 6.14823151315719
-5.885866229306642 5.322002120863496 6.0500074340609435
-5.903600510837702 5.428768924073663 5.950662582113557
-5.9198879703095555 5.53516778359197 5.850253290188548
-5.934679217558105 5.641223571208985 5.748840037828363
-5.947919498155402 5.746958199176869 5.646486876733967
-5.9595439857326085 5.852390612751673 5.543261898698771
-5.969488096032534 5.957534360524478 5.439237034452555
-5.977676138467555 6.0624009894689355 5.334490034694702
-5.984033996867468 6.166995734776155 5.229101313415396
-5.988482058453259 6.271320688820475 5.123157501907805
-5.990939242795945 6.375373001065997 5.016749143125588
-5.991326177236459 6.479144959686405 4.909970961611705
-5.989560761142611 6.582624666155547 4.802921223192244
-5.985564697959466 6.685797516072168 4.6957035410347014
-5.979258466717356 6.788644960434339 4.588425111019517
-5.970569014581876 6.891144554780315 4.481193711120905
-5.959428224248897 6.993272750324714 4.37412086454929
-5.945769898643931 7.095003132010497 4.267319416707281
-5.929532615046352 7.196307953871495 4.160902720781417
-5.910664065288561 7.297158251575069 4.054982909922389
-5.889112984122835 7.3975250331100755 3.9496737305087906
-5.8648354476855395 7.4973786238384035 3.84508665239854
-5.837797158558532 7.596689968146716 3.7413289041293645
-5.807966435956541 7.695431185309592 3.638508265417952
-5.775315720253675 7.7935750322872455 3.5367295186028014
-5.7398274976465675 7.891096284381047 3.436092794533546
-5.7014857685831934 7.9879722292048845 3.336697569182276
-5.660279805363877 8.084181970902055 3.2386391780882713
-5.616204833926736 8.17970853759558 3.142012254216496
-5.569261569396906 8.27453725491932 3.0469051788320947
-5.51945408877625 8.368658377543937 2.953408039932325
-5.466790959269999 8.462064787992722 2.8616068825273646
-5.411282020998075 8.554753694169628 2.7715882271553127
-5.352944402694967 8.64672796666158 2.6834390101142627
-5.291796399096891 8.737993122938908 2.5972463492492732
-5.227865829326645 8.828560686235642 2.513094259975364
-5.161176439590829 8.918444746466632 2.431074439341906
-5.091765951202713 9.007664412262715 2.351271924280654
-5.019669447802371 9.096241555625907 2.273779006792989
-4.944931541206057 9.184201974158064 2.1986871658323563
-4.867600880602181 9.271574459230559 2.1260900767758164
-4.787733171748845 9.358389616966576 2.056080303914858
-4.705389085422295 9.444681259198768 1.988753313683262
-4.620637185489299 9.530484713668843 1.9242033327952128
-4.533551402093321 9.615835806921488 1.862523936167837
-4.444213079515298 9.700771415366829 1.803807212430233
-4.352712732945368 9.785330539359792 1.7481411227272203
-4.259145378662259 9.869549958165187 1.695612672046449
-4.163615858190398 9.95346873975675 1.646302075335427
-4.066235194029963 10.037123037831014 1.6002832523355408
-3.9671216620136844 10.120548588947914 1.5576265154120845
-3.8664005861973276 10.20377984374662 1.5183914056858607
-3.764203001117158 10.28684862306024 1.4826318564803072
-3.660664717085357 10.369784091917381 1.450391734063186
-3.5559286637417964 10.452614955076537 1.4217037062025408
-3.4501357745207493 10.535364173401184 1.396594286413471
-3.343430364894866 10.618053291542523 1.3750781221303048
-3.235957823645353 10.700702366558566 1.3571617962552085
-3.127859580815572 10.783327540278908 1.3428400268027079
-3.0192770150537203 10.865943709123757 1.3320977976683053
-2.9103475494511306 10.94856436070858 1.324910335963971
-2.801203111174246 11.031200291011197 1.3212434758198899
-2.69197182466504 11.11386082356246 1.3210544789455057
-2.5827776594967458 11.196556012004597 1.3242900049379749
-2.4737378630239153 11.279293184984741 1.330885761356531
-2.364963518440076 11.362078325037588 1.340770311918474
-2.2565594868327525 11.444915266033512 1.3538622474137436
-2.148625852429636 11.52780864218694 1.3700719406173394
-2.041252101459354 11.610758790720054 1.3892991744708187
-1.9345233342389234 11.693766395712618 1.4114382622176782
-1.8285134332416981 11.776828582700398 1.4363718581518021
-1.7232900346775495 11.85994294011411 1.46397807393547
-1.618907608644946 11.943102553963824 1.4941273304679958
-1.5154124310757995 12.026301218096378 1.5266828781268815
-1.412838763261217 12.109530018761221 1.5615043984067245
-1.31120766743674 12.192779153472646 1.5984453228307494
-1.210528642300853 12.276038507964572 1.637357864664606
-1.1107982269940737 12.359298442704393 1.6780909789174054
-1.0119989345682554 12.442547913712918 1.720492697403777
-0.9141022517920552 12.525778813081239 1.7644117083591113
-0.8170651532968347 12.608982096963619 1.8096969143742454
-0.7208349662585376 12.692152156011012 1.8561997332870501
-0.6253474494107538 12.775285201641335 1.9037728853733695
-0.5305310966315245 12.85837932672881 1.9522727480284932
-0.4363036271722891 12.941434690624837 2.0015594990609435
-0.3425770258231131 13.024453874742177 2.051494075438986
-0.24925907249574003 13.10744227847958 2.1019415325783575
-0.15625240621391973 13.190405293702417 2.1527733252546284
-0.06345703802429437 13.27335205802281 2.2038537368173765
0.029230429329859864 13.35629101829369 2.255056133377599
0.12190471338520092 13.439238235733166 2.3060664229469996
LINES 199 597
2
0
1
2
1
2
2
2
3
2
3
4
2
4
5
2
5
6
2
6
7
2
7
8
2
8
9
2
9
10
2
10
11
2
11
12
2
12
13
2
13
14
2
14
15
2
15
16
2
16
17
2
17
18
2
18
19
2
19
20
2
20
21
2
21
22
2
22
23
2
23
24
2
24
25
2
25
26
2
26
27
2
27
28
2
28
29
2
29
30
2
30
31
2
31
32
2
32
33
2
33
34
2
34
35
2
35
36
2
36
37
2
37
38
2
38
39
2
39
40
2
40
41
2
41
42
2
42
43
2
43
44
2
44
45
2
45
46
2
46
47
2
47
48
2
48
49
2
49
50
2
50
51
2
51
52
2
52
53
2
53
54
2
54
55
2
55
56
2
56
57
2
57
58
2
58
59
2
59
60
2
60
61
2
61
62
2
62
63
2
63
64
2
64
65
2
65
66
2
66
67
2
67
68
2
68
69
2
69
70
2
70
71
2
71
72
2
72
73
2
73
74
2
74
75
2
75
76
2
76
77
2
77
78
2
78
79
2
79
80
2
80
81
2
81
82
2
82
83
2
83
84
2
84
85
2
85
86
2
86
87
2
87
88
2
88
89
2
89
90
2
90
91
2
91
92
2
92
93
2
93
94
2
94
95
2
95
96
2
96
97
2
97
98
2
98
99
2
99
100
2
100
101
2
101
102
2
102
103
2
103
104
2
104
105
2
105
106
2
106
107
2
107
108
2
108
109
2
109
110
2
110
111
2
111
112
2
112
113
2
113
114
2
114
115
2
115
116
2
116
117
2
117
118
2
118
119
2
119
120
2
120
121
2
121
122
2
122
123
2
123
124
2
124
125
2
125
126
2
126
127
2
127
128
2
128
129
2
129
130
2
130
131
2
131
132
2
132
133
2
133
134
2
134
135
2
135
136
2
136
137
2
137
138
2
138
139
2
139
140
2
140
141
2
141
142
2
142
143
2
143
144
2
144
145
2
145
146
2
146
147
2
147
148
2
148
149
2
149
150
2
150
151
2
151
152
2
152
153
2
153
154
2
154
155
2
155
156
2
156
157
2
157
158
2
158
159
2
159
160
2
160
161
2
161
162
2
162
163
2
163
164
2
164
165
2
165
166
2
166
167
2
167
168
2
168
169
2
169
170
2
170
171
2
171
172
2
172
173
2
173
174
2
174
175
2
175
176
2
176
177
2
177
178
2
178
179
2
179
180
2
180
181
2
181
182
2
182
183
2
183
184
2
184
185
2
185
186
2
186
187
2
187
188
2
188
189
2
189
190
2
190
191
2
191
192
2
192
193
2
193
194
2
194
195
2
195
196
2
196
197
2
197
198
2
198
199

 POINT_DATA 200
 SCALARS radius float 1
 LOOKUP_TABLE default
1.8563792260025258
1.8539640891960205
1.8515755429097451
1.8492835936004461
1.8470106961491908
1.8446866199521537
1.842248513435949
1.8396409287658388
1.8368158056099968
1.8337324169755205
1.8303572760473368
1.8266640067800481
1.822633178648657
1.818252107131794
1.8135146220749083
1.8084208059041635
1.802976702790096
1.7971940016539734
1.7910896955657585
1.784685718728031
1.7780085648082684
1.771088888032539
1.7639610905678411
1.7566628981949997
1.7492349268438514
1.741720243714571
1.7341639237458621
1.726612606243361
1.7191140524885051
1.7117167080365197
1.7044692716631697
1.6974202731925567
1.6906176631134016
1.6841084161589035
1.6779381499552408
1.6721507620348564
1.6667880862799418
1.6618895704171155
1.6574919770575371
1.653629107751241
1.6503315536485819
1.6476264719330318
1.6455373894055336
1.644084034584716
1.6432821977803842
1.6431436201406797
1.6436759113870933
1.6448824968790867
1.6467625928753338
1.6493112103309426
1.6525191860616673
1.65637324151726
1.6608560671859351
1.6659464325995939
1.6716193197383566
1.6778460802093038
1.684594612787658
1.6918295618780972
1.6995125333061358
1.7076023278595287
1.716055189154891
1.7248250650307755
1.7338638801506268
1.7431218187890243
1.7525476140091152
1.7620888441739784
1.7716922322212567
1.7813039476128998
1.7908699085097692
1.8003360813419855
1.8096487788212086
1.8187549512572128
1.8276024719473938
1.8361404142261473
1.8443193186288163
1.8520914490582292
1.8594110366115535
1.866234509177376
1.8725207071614665
1.878231083096026
1.883329884513503
1.8877843198469377
1.8915647060241356
1.8946445979640723
1.8970008991381786
1.8986139524940484
1.8994676128521104
1.8995492992596306
1.8988500285526202
1.8973644290251859
1.895090736396656
1.8920307700579237
1.8881898921170543
1.883576948478002
1.8782041930107853
1.8720871961422392
1.8652447371199006
1.8576986828688815
1.849473851874876
1.8405978664873137
1.8311009927403212
1.821015969801264
1.8103778296857844
1.7992237086581688
1.787592650107098
1.7755254024033296
1.7630642103061855
1.7502526030182535
1.7371351781735198
1.723757384771254
1.7101653042458254
1.6964054317990331
1.6825244593051583
1.6685690593435087
1.6545856728180264
1.6406202999929858
1.6267182964870663
1.6129241745194502
1.5992814107564497
1.5858322609753075
1.5726175823582489
1.5596766640702142
1.5470470673014989
1.5347644736975303
1.522862544789589
1.5113727911031472
1.500324452645757
1.489744389569393
1.479656985310582
1.470084060816269
1.4610448008811319
1.452555692402553
1.4446304749703751
1.4372801039201777
1.4305127252179806
1.4243336636414852
1.4187454224403604
1.4137476957803872
1.4093373936929972
1.4055086781951833
1.4022530130343058
1.399559223529409
1.3974135693663063
1.3957998280976376
1.394699389651783
1.3940913629542488
1.3939526912716904
1.394258279475237
1.394981129809015
1.3960924882030261
1.397561998858528
1.3993578678943024
1.401447035123181
1.4037953528096725
1.4063677727946082
1.4091285388675858
1.4120413858371317
1.4150697439381439
1.4181769477074708
1.4213264492459103
1.424482034561514
1.4276080426185058
1.430669586877467
1.4336327773031252
1.43646494292189
1.4391348543041282
1.4416129445297259
1.4438715283480676
1.445885017733378
1.447630134709602
1.4490861184365917
1.4502349275990227
1.451061435405907
1.451553618209737
1.4517027349700666
1.4515034982846702
1.450954234919401
1.4500570354562266
1.4488178925933564
1.4472468263956555
1.4453579961800473
1.44316979888875
1.4407049514269148
1.437990558671166
1.4350581640961235
1.431943784590231
1.4286879269410213
1.425335587028151
1.4219362305519139
1.4185437549841053
1.4152164325921865
1.412016834258435
1.4090117340299808
1.4062719939977164
1.4038724301406644
1.401891658446846
1.4004119221171447
1.399518899886964
1.3993014956028014
1.3997748651955997