# vtk DataFile Version 4.2
 vtk output
ASCII
DATASET STRUCTURED_POINTS
DIMENSIONS 48 90 54
SPACING 0.2 0.2 0.2
ORIGIN -7.76389 -3.1706781 -0.33137628
POINT_DATA  233280
SCALARS u float 1
LOOKUP_TABLE default
-6.241 -6.057 -5.874 -5.692 -5.511 -5.331 -5.151 -4.972 -4.795 -4.62 -4.446 -4.274 -4.104 -3.936 -3.768 -3.603 -3.442 -3.285 -3.13 -2.977 -2.825 -2.677 -2.535 -2.399 -2.269 -2.143 -2.018 -1.903 -1.795 -1.703 -1.624 -1.555 -1.487 -1.429 -1.392 -1.354 -1.334 -1.323 -1.326 -1.338 -1.356 -1.398 -1.442 -1.495 -1.561 -1.642 -1.734 -1.839 -6.19 -6.004 -5.819 -5.635 -5.453 -5.271 -5.091 -4.911 -4.732 -4.554 -4.379 -4.205 -4.034 -3.865 -3.698 -3.531 -3.366 -3.205 -3.049 -2.895 -2.744 -2.593 -2.447 -2.309 -2.179 -2.055 -1.936 -1.819 -1.709 -1.612 -1.536 -1.474 -1.41 -1.352 -1.318 -1.281 -1.263 -1.251 -1.251 -1.261 -1.276 -1.316 -1.349 -1.396 -1.464 -1.542 -1.636 -1.739 -6.144 -5.957 -5.771 -5.586 -5.401 -5.218 -5.036 -4.856 -4.676 -4.497 -4.319 -4.143 -3.969 -3.798 -3.629 -3.464 -3.299 -3.136 -2.977 -2.821 -2.669 -2.521 -2.373 -2.23 -2.097 -1.974 -1.86 -1.751 -1.643 -1.543 -1.462 -1.406 -1.346 -1.297 -1.267 -1.237 -1.219 -1.209 -1.203 -1.205 -1.224 -1.249 -1.274 -1.32 -1.382 -1.459 -1.549 -1.654 -6.103 -5.916 -5.729 -5.542 -5.357 -5.172 -4.988 -4.806 -4.625 -4.446 -4.267 -4.089 -3.913 -3.739 -3.568 -3.4 -3.233 -3.07 -2.911 -2.755 -2.6 -2.451 -2.309 -2.167 -2.029 -1.903 -1.79 -1.69 -1.594 -1.496 -1.414 -1.356 -1.309 -1.26 -1.24 -1.223 -1.195 -1.196 -1.175 -1.173 -1.186 -1.206 -1.224 -1.265 -1.319 -1.39 -1.478 -1.566 -6.064 -5.877 -5.691 -5.505 -5.319 -5.133 -4.948 -4.764 -4.582 -4.4 -4.219 -4.04 -3.862 -3.687 -3.515 -3.345 -3.175 -3.009 -2.847 -2.69 -2.539 -2.39 -2.247 -2.11 -1.98 -1.85 -1.733 -1.633 -1.547 -1.471 -1.392 -1.333 -1.299 -1.252 -1.233 -1.23 -1.202 -1.203 -1.177 -1.174 -1.173 -1.183 -1.191 -1.223 -1.275 -1.34 -1.407 -1.499 -6.031 -5.843 -5.657 -5.471 -5.285 -5.1 -4.915 -4.731 -4.546 -4.362 -4.18 -3.998 -3.819 -3.642 -3.467 -3.295 -3.127 -2.961 -2.796 -2.636 -2.482 -2.335 -2.193 -2.057 -1.931 -1.816 -1.699 -1.597 -1.511 -1.439 -1.387 -1.341 -1.309 -1.276 -1.257 -1.264 -1.242 -1.241 -1.213 -1.202 -1.191 -1.178 -1.178 -1.208 -1.243 -1.292 -1.362 -1.457 -6.001 -5.813 -5.625 -5.438 -5.253 -5.068 -4.884 -4.7 -4.518 -4.333 -4.149 -3.967 -3.786 -3.607 -3.431 -3.257 -3.086 -2.92 -2.757 -2.597 -2.44 -2.291 -2.149 -2.015 -1.888 -1.774 -1.676 -1.58 -1.5 -1.428 -1.381 -1.356 -1.338 -1.325 -1.312 -1.324 -1.312 -1.308 -1.28 -1.255 -1.232 -1.201 -1.197 -1.203 -1.225 -1.275 -1.341 -1.416 -5.978 -5.789 -5.601 -5.413 -5.226 -5.04 -4.856 -4.672 -4.49 -4.308 -4.127 -3.945 -3.763 -3.583 -3.405 -3.23 -3.058 -2.89 -2.726 -2.567 -2.413 -2.263 -2.119 -1.986 -1.863 -1.748 -1.649 -1.569 -1.498 -1.445 -1.398 -1.379 -1.384 -1.384 -1.393 -1.404 -1.395 -1.386 -1.366 -1.33 -1.287 -1.252 -1.229 -1.217 -1.233 -1.267 -1.317 -1.389 -5.962 -5.772 -5.583 -5.395 -5.207 -5.021 -4.835 -4.651 -4.468 -4.285 -4.104 -3.924 -3.746 -3.568 -3.39 -3.214 -3.041 -2.871 -2.706 -2.546 -2.391 -2.244 -2.105 -1.971 -1.849 -1.741 -1.645 -1.565 -1.508 -1.465 -1.44 -1.425 -1.434 -1.463 -1.476 -1.472 -1.462 -1.448 -1.427 -1.401 -1.363 -1.315 -1.272 -1.252 -1.255 -1.263 -1.297 -1.36 -5.949 -5.76 -5.571 -5.383 -5.196 -5.009 -4.823 -4.638 -4.454 -4.271 -4.089 -3.909 -3.73 -3.554 -3.38 -3.206 -3.033 -2.863 -2.697 -2.536 -2.381 -2.233 -2.094 -1.965 -1.843 -1.736 -1.645 -1.575 -1.528 -1.499 -1.486 -1.489 -1.506 -1.534 -1.535 -1.53 -1.519 -1.505 -1.488 -1.459 -1.428 -1.382 -1.33 -1.289 -1.26 -1.263 -1.297 -1.36 -5.941 -5.751 -5.562 -5.374 -5.187 -5.0 -4.814 -4.629 -4.445 -4.262 -4.081 -3.902 -3.724 -3.546 -3.371 -3.198 -3.028 -2.863 -2.701 -2.541 -2.387 -2.239 -2.101 -1.972 -1.857 -1.753 -1.663 -1.594 -1.547 -1.526 -1.529 -1.548 -1.583 -1.592 -1.592 -1.587 -1.576 -1.562 -1.541 -1.517 -1.484 -1.445 -1.376 -1.32 -1.292 -1.295 -1.328 -1.38 -5.936 -5.746 -5.557 -5.369 -5.182 -4.995 -4.81 -4.625 -4.441 -4.258 -4.076 -3.896 -3.718 -3.541 -3.366 -3.192 -3.023 -2.857 -2.695 -2.54 -2.39 -2.249 -2.117 -1.997 -1.886 -1.788 -1.704 -1.637 -1.591 -1.571 -1.575 -1.605 -1.641 -1.644 -1.647 -1.64 -1.627 -1.615 -1.596 -1.569 -1.541 -1.496 -1.433 -1.378 -1.338 -1.325 -1.342 -1.388 -5.938 -5.749 -5.56 -5.372 -5.184 -4.998 -4.813 -4.627 -4.442 -4.258 -4.076 -3.895 -3.716 -3.54 -3.365 -3.192 -3.022 -2.856 -2.695 -2.539 -2.39 -2.249 -2.117 -1.996 -1.888 -1.797 -1.723 -1.67 -1.64 -1.624 -1.63 -1.66 -1.688 -1.696 -1.694 -1.688 -1.676 -1.664 -1.643 -1.616 -1.583 -1.545 -1.484 -1.417 -1.376 -1.363 -1.377 -1.417 -5.944 -5.756 -5.567 -5.379 -5.191 -5.004 -4.817 -4.631 -4.446 -4.262 -4.08 -3.899 -3.721 -3.544 -3.371 -3.2 -3.032 -2.866 -2.704 -2.548 -2.399 -2.257 -2.124 -2.003 -1.896 -1.804 -1.73 -1.677 -1.647 -1.641 -1.66 -1.701 -1.738 -1.742 -1.737 -1.731 -1.724 -1.712 -1.684 -1.658 -1.624 -1.588 -1.53 -1.461 -1.416 -1.399 -1.409 -1.446 -5.956 -5.767 -5.578 -5.39 -5.201 -5.013 -4.826 -4.64 -4.454 -4.271 -4.089 -3.908 -3.73 -3.554 -3.38 -3.21 -3.043 -2.88 -2.722 -2.568 -2.42 -2.28 -2.149 -2.029 -1.923 -1.832 -1.76 -1.708 -1.678 -1.672 -1.69 -1.731 -1.778 -1.78 -1.775 -1.77 -1.76 -1.746 -1.726 -1.697 -1.662 -1.625 -1.558 -1.489 -1.444 -1.425 -1.434 -1.471 -5.97 -5.782 -5.593 -5.404 -5.215 -5.027 -4.84 -4.655 -4.47 -4.287 -4.106 -3.926 -3.749 -3.574 -3.401 -3.232 -3.066 -2.905 -2.749 -2.599 -2.455 -2.319 -2.19 -2.071 -1.965 -1.874 -1.801 -1.748 -1.717 -1.709 -1.725 -1.762 -1.811 -1.814 -1.809 -1.802 -1.795 -1.781 -1.76 -1.731 -1.698 -1.655 -1.587 -1.522 -1.481 -1.466 -1.479 -1.517 -5.99 -5.801 -5.613 -5.424 -5.236 -5.049 -4.863 -4.679 -4.495 -4.313 -4.133 -3.955 -3.778 -3.605 -3.434 -3.266 -3.101 -2.94 -2.785 -2.635 -2.493 -2.356 -2.228 -2.111 -2.007 -1.919 -1.847 -1.796 -1.761 -1.744 -1.75 -1.778 -1.828 -1.848 -1.84 -1.833 -1.822 -1.808 -1.786 -1.76 -1.728 -1.672 -1.601 -1.55 -1.523 -1.51 -1.524 -1.563 -6.013 -5.825 -5.638 -5.451 -5.265 -5.079 -4.894 -4.711 -4.529 -4.348 -4.169 -3.991 -3.816 -3.643 -3.472 -3.306 -3.143 -2.984 -2.831 -2.684 -2.543 -2.408 -2.283 -2.169 -2.062 -1.968 -1.891 -1.832 -1.793 -1.777 -1.782 -1.809 -1.832 -1.87 -1.868 -1.863 -1.849 -1.832 -1.811 -1.782 -1.741 -1.679 -1.627 -1.586 -1.561 -1.56 -1.585 -1.625 -6.043 -5.856 -5.669 -5.483 -5.298 -5.113 -4.93 -4.748 -4.568 -4.388 -4.21 -4.034 -3.86 -3.689 -3.521 -3.356 -3.195 -3.039 -2.887 -2.742 -2.601 -2.463 -2.334 -2.216 -2.109 -2.017 -1.942 -1.884 -1.847 -1.831 -1.824 -1.82 -1.834 -1.859 -1.885 -1.883 -1.87 -1.847 -1.823 -1.79 -1.73 -1.684 -1.644 -1.621 -1.612 -1.622 -1.644 -1.689 -6.079 -5.892 -5.706 -5.521 -5.337 -5.154 -4.973 -4.793 -4.613 -4.434 -4.257 -4.083 -3.91 -3.741 -3.574 -3.412 -3.253 -3.099 -2.947 -2.797 -2.654 -2.519 -2.393 -2.277 -2.174 -2.085 -2.012 -1.956 -1.919 -1.878 -1.852 -1.839 -1.842 -1.852 -1.863 -1.88 -1.868 -1.849 -1.818 -1.77 -1.733 -1.694 -1.669 -1.653 -1.66 -1.68 -1.715 -1.759 -6.118 -5.932 -5.747 -5.564 -5.381 -5.2 -5.02 -4.84 -4.662 -4.485 -4.31 -4.138 -3.968 -3.801 -3.637 -3.476 -3.316 -3.159 -3.006 -2.86 -2.72 -2.588 -2.466 -2.354 -2.254 -2.168 -2.096 -2.028 -1.968 -1.92 -1.887 -1.868 -1.861 -1.851 -1.86 -1.865 -1.848 -1.827 -1.799 -1.767 -1.742 -1.72 -1.705 -1.701 -1.709 -1.74 -1.79 -1.847 -6.158 -5.978 -5.795 -5.612 -5.431 -5.25 -5.07 -4.892 -4.716 -4.542 -4.37 -4.2 -4.031 -3.864 -3.699 -3.538 -3.38 -3.227 -3.078 -2.935 -2.799 -2.671 -2.553 -2.445 -2.343 -2.248 -2.166 -2.085 -2.02 -1.972 -1.936 -1.913 -1.882 -1.871 -1.871 -1.87 -1.848 -1.827 -1.8 -1.787 -1.761 -1.758 -1.753 -1.762 -1.778 -1.808 -1.859 -1.93 -6.037 -5.992 -5.845 -5.663 -5.483 -5.304 -5.126 -4.95 -4.776 -4.603 -4.431 -4.261 -4.094 -3.93 -3.768 -3.609 -3.455 -3.306 -3.161 -3.022 -2.89 -2.764 -2.643 -2.528 -2.423 -2.325 -2.231 -2.152 -2.089 -2.041 -2.004 -1.954 -1.923 -1.912 -1.897 -1.893 -1.871 -1.848 -1.823 -1.815 -1.803 -1.8 -1.807 -1.823 -1.851 -1.89 -1.943 -2.011 -5.917 -5.871 -5.832 -5.72 -5.541 -5.364 -5.188 -5.014 -4.84 -4.668 -4.498 -4.33 -4.166 -4.004 -3.845 -3.69 -3.54 -3.395 -3.251 -3.112 -2.979 -2.851 -2.73 -2.617 -2.506 -2.403 -2.312 -2.236 -2.175 -2.125 -2.063 -2.014 -1.983 -1.957 -1.936 -1.924 -1.911 -1.89 -1.867 -1.859 -1.864 -1.863 -1.875 -1.891 -1.928 -1.971 -2.028 -2.102 -5.789 -5.743 -5.699 -5.662 -5.606 -5.43 -5.255 -5.081 -4.909 -4.739 -4.572 -4.408 -4.246 -4.088 -3.932 -3.78 -3.63 -3.483 -3.342 -3.204 -3.071 -2.944 -2.825 -2.704 -2.593 -2.494 -2.407 -2.333 -2.269 -2.203 -2.138 -2.09 -2.054 -2.014 -1.994 -1.974 -1.964 -1.951 -1.931 -1.924 -1.932 -1.939 -1.962 -1.977 -2.012 -2.066 -2.122 -2.193 -5.657 -5.609 -5.564 -5.526 -5.495 -5.471 -5.326 -5.154 -4.985 -4.818 -4.654 -4.492 -4.334 -4.179 -4.023 -3.87 -3.722 -3.578 -3.436 -3.3 -3.17 -3.042 -2.917 -2.8 -2.693 -2.597 -2.514 -2.435 -2.368 -2.291 -2.228 -2.177 -2.128 -2.089 -2.07 -2.043 -2.033 -2.031 -2.013 -2.006 -2.015 -2.023 -2.05 -2.079 -2.112 -2.164 -2.231 -2.298 -5.527 -5.479 -5.433 -5.394 -5.362 -5.337 -5.32 -5.235 -5.068 -4.904 -4.743 -4.584 -4.426 -4.269 -4.116 -3.966 -3.819 -3.675 -3.537 -3.403 -3.269 -3.14 -3.019 -2.906 -2.803 -2.71 -2.621 -2.543 -2.467 -2.39 -2.324 -2.271 -2.217 -2.18 -2.157 -2.129 -2.119 -2.119 -2.107 -2.103 -2.114 -2.122 -2.148 -2.192 -2.225 -2.274 -2.339 -2.416 -5.401 -5.353 -5.306 -5.266 -5.233 -5.208 -5.191 -5.181 -5.157 -4.996 -4.837 -4.676 -4.519 -4.366 -4.214 -4.065 -3.92 -3.779 -3.642 -3.504 -3.372 -3.247 -3.13 -3.022 -2.92 -2.822 -2.736 -2.66 -2.573 -2.495 -2.43 -2.372 -2.32 -2.285 -2.256 -2.229 -2.22 -2.219 -2.211 -2.208 -2.222 -2.234 -2.259 -2.301 -2.35 -2.397 -2.458 -2.535 -5.279 -5.231 -5.184 -5.143 -5.11 -5.084 -5.066 -5.056 -5.046 -5.042 -4.931 -4.774 -4.619 -4.466 -4.316 -4.17 -4.027 -3.886 -3.746 -3.612 -3.484 -3.363 -3.25 -3.141 -3.037 -2.944 -2.86 -2.772 -2.685 -2.609 -2.548 -2.485 -2.436 -2.402 -2.368 -2.342 -2.334 -2.333 -2.328 -2.324 -2.338 -2.358 -2.382 -2.421 -2.476 -2.529 -2.588 -2.66 -5.153 -5.106 -5.063 -5.024 -4.989 -4.96 -4.936 -4.915 -4.903 -4.899 -4.903 -4.875 -4.72 -4.57 -4.423 -4.277 -4.134 -3.993 -3.857 -3.727 -3.604 -3.487 -3.371 -3.262 -3.163 -3.073 -2.985 -2.89 -2.806 -2.734 -2.67 -2.608 -2.561 -2.529 -2.491 -2.466 -2.458 -2.457 -2.455 -2.452 -2.465 -2.492 -2.514 -2.552 -2.604 -2.67 -2.725 -2.794 -5.03 -4.981 -4.938 -4.893 -4.855 -4.826 -4.798 -4.777 -4.765 -4.76 -4.765 -4.777 -4.79 -4.678 -4.531 -4.387 -4.245 -4.108 -3.976 -3.85 -3.728 -3.609 -3.496 -3.392 -3.296 -3.205 -3.107 -3.016 -2.935 -2.867 -2.799 -2.741 -2.696 -2.661 -2.623 -2.6 -2.592 -2.591 -2.592 -2.589 -2.601 -2.629 -2.655 -2.691 -2.741 -2.804 -2.87 -2.936 -4.909 -4.854 -4.805 -4.761 -4.723 -4.692 -4.665 -4.643 -4.63 -4.626 -4.63 -4.64 -4.653 -4.674 -4.643 -4.5 -4.362 -4.228 -4.1 -3.975 -3.852 -3.736 -3.628 -3.527 -3.432 -3.334 -3.237 -3.15 -3.073 -3.004 -2.936 -2.881 -2.838 -2.8 -2.764 -2.742 -2.734 -2.733 -2.736 -2.733 -2.745 -2.771 -2.804 -2.837 -2.885 -2.945 -3.017 -3.084 -4.784 -4.728 -4.676 -4.631 -4.593 -4.56 -4.537 -4.514 -4.501 -4.497 -4.501 -4.506 -4.52 -4.542 -4.573 -4.61 -4.485 -4.355 -4.226 -4.101 -3.982 -3.87 -3.766 -3.666 -3.569 -3.467 -3.374 -3.29 -3.217 -3.145 -3.081 -3.028 -2.987 -2.945 -2.911 -2.89 -2.883 -2.881 -2.886 -2.885 -2.896 -2.92 -2.958 -2.99 -3.035 -3.092 -3.161 -3.238 -4.66 -4.603 -4.552 -4.505 -4.465 -4.432 -4.407 -4.39 -4.375 -4.37 -4.371 -4.378 -4.392 -4.415 -4.441 -4.474 -4.511 -4.481 -4.354 -4.233 -4.118 -4.01 -3.907 -3.809 -3.705 -3.606 -3.517 -3.437 -3.365 -3.293 -3.231 -3.18 -3.142 -3.097 -3.064 -3.045 -3.038 -3.036 -3.041 -3.041 -3.052 -3.075 -3.112 -3.148 -3.191 -3.245 -3.311 -3.387 -4.539 -4.48 -4.426 -4.377 -4.336 -4.304 -4.277 -4.253 -4.238 -4.231 -4.232 -4.242 -4.258 -4.278 -4.303 -4.334 -4.371 -4.415 -4.468 -4.37 -4.259 -4.153 -4.051 -3.948 -3.846 -3.751 -3.665 -3.588 -3.515 -3.445 -3.386 -3.338 -3.297 -3.254 -3.223 -3.204 -3.198 -3.196 -3.2 -3.203 -3.213 -3.235 -3.27 -3.311 -3.351 -3.403 -3.466 -3.539 -4.418 -4.357 -4.301 -4.25 -4.207 -4.172 -4.142 -4.117 -4.101 -4.096 -4.098 -4.107 -4.119 -4.137 -4.159 -4.19 -4.228 -4.274 -4.328 -4.386 -4.403 -4.298 -4.196 -4.091 -3.992 -3.901 -3.818 -3.744 -3.669 -3.602 -3.546 -3.5 -3.456 -3.415 -3.386 -3.368 -3.362 -3.36 -3.364 -3.369 -3.378 -3.399 -3.432 -3.476 -3.516 -3.565 -3.625 -3.695 -4.295 -4.234 -4.18 -4.126 -4.082 -4.046 -4.011 -3.985 -3.97 -3.964 -3.965 -3.967 -3.977 -3.994 -4.016 -4.047 -4.089 -4.135 -4.185 -4.241 -4.3 -4.367 -4.34 -4.238 -4.142 -4.055 -3.975 -3.9 -3.827 -3.764 -3.71 -3.666 -3.62 -3.581 -3.553 -3.536 -3.53 -3.528 -3.532 -3.538 -3.547 -3.567 -3.599 -3.641 -3.684 -3.731 -3.788 -3.855 -4.175 -4.113 -4.06 -4.006 -3.959 -3.921 -3.885 -3.858 -3.838 -3.826 -3.824 -3.826 -3.837 -3.853 -3.875 -3.906 -3.943 -3.986 -4.037 -4.094 -4.155 -4.224 -4.295 -4.37 -4.297 -4.213 -4.136 -4.059 -3.989 -3.928 -3.877 -3.834 -3.787 -3.75 -3.723 -3.706 -3.701 -3.699 -3.702 -3.71 -3.719 -3.738 -3.768 -3.808 -3.855 -3.9 -3.955 -4.019 -4.061 -3.998 -3.937 -3.883 -3.831 -3.786 -3.751 -3.723 -3.701 -3.689 -3.686 -3.689 -3.694 -3.706 -3.728 -3.76 -3.796 -3.84 -3.892 -3.951 -4.01 -4.074 -4.148 -4.22 -4.3 -4.374 -4.298 -4.222 -4.155 -4.096 -4.047 -4.002 -3.957 -3.921 -3.896 -3.88 -3.875 -3.872 -3.876 -3.885 -3.894 -3.912 -3.941 -3.979 -4.027 -4.072 -4.124 -4.186 -3.953 -3.879 -3.814 -3.753 -3.699 -3.655 -3.62 -3.593 -3.57 -3.557 -3.548 -3.549 -3.551 -3.564 -3.587 -3.614 -3.651 -3.698 -3.747 -3.802 -3.86 -3.927 -3.995 -4.069 -4.15 -4.235 -4.322 -4.388 -4.323 -4.267 -4.22 -4.173 -4.13 -4.095 -4.071 -4.056 -4.051 -4.049 -4.052 -4.063 -4.071 -4.088 -4.116 -4.152 -4.198 -4.246 -4.297 -4.356 -3.835 -3.759 -3.692 -3.628 -3.572 -3.527 -3.493 -3.461 -3.434 -3.414 -3.405 -3.407 -3.415 -3.427 -3.445 -3.472 -3.51 -3.552 -3.6 -3.654 -3.713 -3.775 -3.844 -3.918 -4.001 -4.081 -4.168 -4.262 -4.359 -4.45 -4.395 -4.346 -4.305 -4.272 -4.248 -4.234 -4.229 -4.227 -4.23 -4.242 -4.25 -4.267 -4.293 -4.328 -4.372 -4.423 -4.471 -4.528 -3.719 -3.641 -3.573 -3.509 -3.452 -3.401 -3.36 -3.328 -3.299 -3.277 -3.267 -3.27 -3.279 -3.289 -3.306 -3.333 -3.363 -3.403 -3.45 -3.503 -3.561 -3.623 -3.693 -3.77 -3.845 -3.927 -4.018 -4.112 -4.199 -4.291 -4.387 -4.483 -4.482 -4.45 -4.428 -4.414 -4.41 -4.407 -4.41 -4.423 -4.43 -4.447 -4.472 -4.506 -4.548 -4.599 -4.648 -4.702 -3.611 -3.53 -3.458 -3.393 -3.328 -3.274 -3.231 -3.201 -3.17 -3.147 -3.137 -3.137 -3.137 -3.145 -3.162 -3.185 -3.217 -3.257 -3.301 -3.352 -3.411 -3.475 -3.543 -3.617 -3.693 -3.778 -3.87 -3.952 -4.041 -4.135 -4.227 -4.326 -4.421 -4.52 -4.621 -4.596 -4.591 -4.589 -4.592 -4.604 -4.613 -4.628 -4.653 -4.685 -4.726 -4.775 -4.826 -4.879 -3.503 -3.42 -3.347 -3.275 -3.21 -3.154 -3.11 -3.078 -3.048 -3.023 -3.001 -2.993 -2.997 -3.005 -3.018 -3.042 -3.072 -3.107 -3.15 -3.205 -3.261 -3.322 -3.393 -3.466 -3.545 -3.631 -3.708 -3.793 -3.886 -3.975 -4.07 -4.165 -4.262 -4.362 -4.459 -4.562 -4.667 -4.774 -4.775 -4.786 -4.797 -4.812 -4.835 -4.866 -4.905 -4.952 -5.006 -5.057 -3.398 -3.313 -3.238 -3.162 -3.096 -3.041 -2.997 -2.961 -2.923 -2.887 -2.865 -2.856 -2.858 -2.859 -2.873 -2.899 -2.925 -2.959 -3.005 -3.058 -3.111 -3.174 -3.246 -3.319 -3.395 -3.468 -3.548 -3.637 -3.725 -3.816 -3.911 -4.004 -4.103 -4.198 -4.299 -4.403 -4.507 -4.615 -4.716 -4.821 -4.932 -4.996 -5.018 -5.049 -5.086 -5.132 -5.185 -5.236 -3.303 -3.215 -3.135 -3.058 -2.99 -2.933 -2.88 -2.833 -2.794 -2.759 -2.736 -2.725 -2.719 -2.719 -2.734 -2.755 -2.778 -2.815 -2.858 -2.909 -2.966 -3.029 -3.094 -3.166 -3.236 -3.309 -3.393 -3.48 -3.566 -3.659 -3.75 -3.846 -3.941 -4.038 -4.142 -4.243 -4.349 -4.452 -4.554 -4.663 -4.777 -4.891 -5.007 -5.116 -5.225 -5.313 -5.364 -5.417 -3.213 -3.121 -3.038 -2.963 -2.887 -2.818 -2.759 -2.707 -2.664 -2.632 -2.607 -2.596 -2.587 -2.586 -2.591 -2.611 -2.638 -2.672 -2.712 -2.765 -2.823 -2.878 -2.944 -3.009 -3.078 -3.155 -3.241 -3.322 -3.407 -3.5 -3.592 -3.687 -3.781 -3.882 -3.981 -4.086 -4.189 -4.29 -4.396 -4.509 -4.622 -4.736 -4.848 -4.955 -5.068 -5.186 -5.309 -5.43 -3.126 -3.034 -2.941 -2.857 -2.779 -2.703 -2.638 -2.586 -2.543 -2.509 -2.482 -2.465 -2.456 -2.447 -2.453 -2.474 -2.497 -2.528 -2.571 -2.623 -2.674 -2.731 -2.79 -2.854 -2.925 -3.004 -3.081 -3.159 -3.248 -3.342 -3.437 -3.527 -3.624 -3.723 -3.825 -3.926 -4.027 -4.131 -4.241 -4.354 -4.467 -4.582 -4.687 -4.797 -4.914 -5.035 -5.157 -5.279 -3.033 -2.931 -2.839 -2.753 -2.671 -2.594 -2.526 -2.472 -2.433 -2.394 -2.359 -2.337 -2.329 -2.318 -2.324 -2.336 -2.359 -2.388 -2.427 -2.47 -2.524 -2.576 -2.637 -2.704 -2.773 -2.846 -2.918 -3.001 -3.093 -3.188 -3.276 -3.368 -3.468 -3.566 -3.665 -3.766 -3.868 -3.975 -4.088 -4.199 -4.314 -4.42 -4.528 -4.643 -4.763 -4.885 -5.006 -5.127 -2.943 -2.838 -2.743 -2.655 -2.568 -2.495 -2.425 -2.367 -2.32 -2.276 -2.238 -2.214 -2.2 -2.189 -2.192 -2.196 -2.217 -2.247 -2.277 -2.323 -2.372 -2.425 -2.488 -2.549 -2.615 -2.685 -2.761 -2.847 -2.939 -3.028 -3.117 -3.213 -3.311 -3.408 -3.506 -3.607 -3.711 -3.821 -3.932 -4.045 -4.153 -4.261 -4.373 -4.492 -4.614 -4.734 -4.857 -4.978 -2.865 -2.756 -2.659 -2.567 -2.478 -2.402 -2.329 -2.265 -2.21 -2.161 -2.124 -2.093 -2.069 -2.056 -2.057 -2.061 -2.083 -2.103 -2.135 -2.179 -2.225 -2.276 -2.333 -2.395 -2.462 -2.528 -2.608 -2.694 -2.783 -2.87 -2.962 -3.059 -3.156 -3.25 -3.348 -3.449 -3.557 -3.668 -3.778 -3.888 -3.995 -4.106 -4.222 -4.344 -4.463 -4.586 -4.707 -4.831 -2.797 -2.687 -2.587 -2.489 -2.395 -2.304 -2.227 -2.166 -2.108 -2.049 -2.004 -1.974 -1.949 -1.934 -1.933 -1.938 -1.948 -1.969 -1.998 -2.033 -2.076 -2.125 -2.183 -2.247 -2.303 -2.374 -2.457 -2.54 -2.627 -2.717 -2.81 -2.906 -2.998 -3.093 -3.192 -3.295 -3.407 -3.514 -3.626 -3.729 -3.84 -3.955 -4.075 -4.194 -4.314 -4.437 -4.56 -4.685 -2.728 -2.618 -2.512 -2.403 -2.307 -2.219 -2.138 -2.068 -2.003 -1.942 -1.893 -1.861 -1.83 -1.809 -1.807 -1.798 -1.808 -1.831 -1.858 -1.887 -1.928 -1.975 -2.034 -2.09 -2.151 -2.227 -2.304 -2.382 -2.473 -2.561 -2.656 -2.748 -2.842 -2.938 -3.037 -3.145 -3.251 -3.362 -3.466 -3.574 -3.689 -3.808 -3.926 -4.044 -4.167 -4.29 -4.413 -4.537 -2.669 -2.553 -2.442 -2.33 -2.228 -2.136 -2.047 -1.969 -1.905 -1.847 -1.797 -1.755 -1.718 -1.696 -1.681 -1.67 -1.679 -1.694 -1.717 -1.749 -1.783 -1.834 -1.88 -1.937 -2.007 -2.079 -2.146 -2.23 -2.317 -2.409 -2.5 -2.592 -2.687 -2.783 -2.885 -2.992 -3.098 -3.207 -3.311 -3.424 -3.542 -3.66 -3.775 -3.897 -4.02 -4.143 -4.267 -4.391 -2.609 -2.49 -2.379 -2.268 -2.158 -2.059 -1.96 -1.877 -1.812 -1.753 -1.697 -1.65 -1.611 -1.58 -1.559 -1.548 -1.554 -1.557 -1.582 -1.608 -1.642 -1.689 -1.731 -1.792 -1.859 -1.923 -1.996 -2.084 -2.168 -2.256 -2.346 -2.437 -2.533 -2.631 -2.736 -2.838 -2.95 -3.052 -3.161 -3.278 -3.395 -3.509 -3.629 -3.752 -3.875 -3.998 -4.121 -4.248 -2.564 -2.439 -2.322 -2.208 -2.098 -1.989 -1.888 -1.802 -1.733 -1.662 -1.602 -1.549 -1.508 -1.471 -1.442 -1.431 -1.43 -1.427 -1.442 -1.467 -1.504 -1.545 -1.592 -1.651 -1.716 -1.776 -1.855 -1.935 -2.014 -2.098 -2.192 -2.285 -2.382 -2.485 -2.583 -2.691 -2.797 -2.902 -3.015 -3.133 -3.245 -3.363 -3.486 -3.608 -3.73 -3.854 -3.979 -4.106 -2.516 -2.387 -2.267 -2.148 -2.03 -1.922 -1.824 -1.736 -1.657 -1.577 -1.512 -1.456 -1.401 -1.359 -1.336 -1.319 -1.308 -1.297 -1.312 -1.338 -1.368 -1.407 -1.454 -1.511 -1.576 -1.641 -1.71 -1.784 -1.858 -1.948 -2.039 -2.137 -2.236 -2.334 -2.437 -2.546 -2.646 -2.755 -2.871 -2.985 -3.1 -3.222 -3.344 -3.465 -3.588 -3.712 -3.839 -3.969 -2.482 -2.349 -2.222 -2.099 -1.977 -1.867 -1.773 -1.675 -1.582 -1.509 -1.43 -1.363 -1.312 -1.267 -1.234 -1.208 -1.184 -1.186 -1.193 -1.212 -1.241 -1.273 -1.311 -1.376 -1.433 -1.498 -1.562 -1.632 -1.711 -1.803 -1.893 -1.991 -2.088 -2.19 -2.297 -2.396 -2.499 -2.612 -2.728 -2.841 -2.961 -3.082 -3.203 -3.324 -3.447 -3.573 -3.702 -3.834 -2.458 -2.32 -2.19 -2.065 -1.944 -1.832 -1.725 -1.624 -1.528 -1.435 -1.356 -1.285 -1.223 -1.174 -1.14 -1.099 -1.079 -1.074 -1.071 -1.087 -1.11 -1.142 -1.184 -1.237 -1.298 -1.355 -1.419 -1.489 -1.573 -1.656 -1.749 -1.845 -1.942 -2.049 -2.148 -2.25 -2.358 -2.471 -2.586 -2.703 -2.822 -2.944 -3.064 -3.183 -3.308 -3.438 -3.569 -3.698 -2.437 -2.297 -2.16 -2.031 -1.911 -1.788 -1.676 -1.572 -1.471 -1.374 -1.288 -1.217 -1.155 -1.096 -1.046 -1.003 -0.979 -0.966 -0.956 -0.97 -0.985 -1.016 -1.06 -1.107 -1.155 -1.216 -1.276 -1.356 -1.43 -1.515 -1.607 -1.702 -1.803 -1.907 -2.002 -2.11 -2.219 -2.329 -2.446 -2.565 -2.686 -2.805 -2.923 -3.045 -3.174 -3.304 -3.434 -3.564 -2.419 -2.278 -2.144 -2.015 -1.881 -1.756 -1.641 -1.53 -1.426 -1.331 -1.237 -1.158 -1.092 -1.025 -0.966 -0.92 -0.88 -0.863 -0.852 -0.858 -0.876 -0.905 -0.941 -0.981 -1.025 -1.082 -1.144 -1.215 -1.291 -1.38 -1.47 -1.568 -1.669 -1.76 -1.86 -1.968 -2.074 -2.19 -2.31 -2.431 -2.55 -2.667 -2.787 -2.914 -3.043 -3.172 -3.302 -3.436 -2.411 -2.269 -2.136 -1.999 -1.861 -1.735 -1.618 -1.5 -1.388 -1.293 -1.2 -1.107 -1.027 -0.959 -0.894 -0.841 -0.802 -0.773 -0.765 -0.764 -0.769 -0.794 -0.821 -0.855 -0.896 -0.948 -1.011 -1.082 -1.164 -1.251 -1.341 -1.435 -1.526 -1.622 -1.726 -1.826 -1.938 -2.06 -2.177 -2.297 -2.416 -2.533 -2.658 -2.786 -2.914 -3.042 -3.175 -3.308 -2.413 -2.271 -2.133 -1.992 -1.854 -1.726 -1.606 -1.477 -1.36 -1.263 -1.161 -1.068 -0.982 -0.903 -0.838 -0.776 -0.731 -0.703 -0.682 -0.674 -0.678 -0.689 -0.701 -0.738 -0.779 -0.821 -0.886 -0.957 -1.037 -1.121 -1.211 -1.305 -1.393 -1.491 -1.589 -1.694 -1.814 -1.927 -2.046 -2.164 -2.281 -2.404 -2.532 -2.659 -2.786 -2.918 -3.048 -3.18 -2.428 -2.28 -2.136 -1.993 -1.853 -1.725 -1.6 -1.475 -1.358 -1.244 -1.134 -1.036 -0.944 -0.855 -0.773 -0.716 -0.678 -0.636 -0.609 -0.587 -0.591 -0.593 -0.595 -0.63 -0.663 -0.702 -0.768 -0.843 -0.914 -1.002 -1.084 -1.173 -1.266 -1.361 -1.463 -1.576 -1.687 -1.798 -1.913 -2.032 -2.151 -2.28 -2.406 -2.529 -2.66 -2.793 -2.923 -3.057 -2.442 -2.292 -2.149 -2.006 -1.867 -1.738 -1.603 -1.473 -1.349 -1.232 -1.122 -1.024 -0.922 -0.832 -0.747 -0.682 -0.625 -0.581 -0.544 -0.524 -0.507 -0.502 -0.5 -0.531 -0.558 -0.604 -0.664 -0.731 -0.805 -0.883 -0.966 -1.046 -1.142 -1.231 -1.34 -1.454 -1.559 -1.668 -1.787 -1.906 -2.032 -2.157 -2.278 -2.406 -2.542 -2.671 -2.803 -2.941 -2.47 -2.32 -2.172 -2.03 -1.892 -1.747 -1.607 -1.481 -1.356 -1.237 -1.125 -1.017 -0.909 -0.815 -0.732 -0.658 -0.594 -0.541 -0.505 -0.471 -0.425 -0.423 -0.432 -0.435 -0.457 -0.514 -0.568 -0.628 -0.697 -0.763 -0.843 -0.932 -1.023 -1.118 -1.224 -1.336 -1.438 -1.551 -1.669 -1.792 -1.915 -2.035 -2.159 -2.292 -2.421 -2.553 -2.69 -2.824 -2.507 -2.353 -2.204 -2.063 -1.919 -1.771 -1.633 -1.503 -1.376 -1.257 -1.141 -1.024 -0.914 -0.816 -0.726 -0.647 -0.576 -0.52 -0.465 -0.418 -0.379 -0.364 -0.354 -0.355 -0.39 -0.425 -0.473 -0.531 -0.598 -0.66 -0.731 -0.82 -0.913 -1.01 -1.113 -1.222 -1.326 -1.44 -1.556 -1.676 -1.8 -1.92 -2.047 -2.176 -2.303 -2.439 -2.575 -2.713 -2.549 -2.395 -2.249 -2.104 -1.955 -1.807 -1.666 -1.53 -1.407 -1.284 -1.162 -1.042 -0.92 -0.82 -0.736 -0.649 -0.571 -0.503 -0.436 -0.376 -0.338 -0.318 -0.289 -0.302 -0.319 -0.354 -0.389 -0.438 -0.498 -0.56 -0.641 -0.722 -0.81 -0.908 -1.009 -1.11 -1.22 -1.329 -1.445 -1.566 -1.685 -1.811 -1.938 -2.061 -2.194 -2.334 -2.467 -2.607 -2.597 -2.448 -2.295 -2.147 -2.001 -1.854 -1.714 -1.58 -1.457 -1.321 -1.185 -1.066 -0.953 -0.85 -0.756 -0.664 -0.586 -0.499 -0.422 -0.363 -0.318 -0.271 -0.265 -0.259 -0.27 -0.305 -0.326 -0.367 -0.418 -0.48 -0.55 -0.634 -0.718 -0.813 -0.907 -1.007 -1.117 -1.228 -1.346 -1.461 -1.583 -1.708 -1.83 -1.959 -2.098 -2.227 -2.363 -2.503 -2.653 -2.498 -2.345 -2.197 -2.051 -1.909 -1.771 -1.637 -1.498 -1.359 -1.228 -1.111 -1.0 -0.89 -0.788 -0.692 -0.597 -0.506 -0.435 -0.367 -0.319 -0.281 -0.246 -0.241 -0.25 -0.253 -0.273 -0.304 -0.355 -0.409 -0.48 -0.556 -0.629 -0.727 -0.815 -0.913 -1.02 -1.131 -1.246 -1.367 -1.487 -1.609 -1.738 -1.867 -1.993 -2.125 -2.267 -2.398 -2.713 -2.556 -2.403 -2.256 -2.113 -1.974 -1.833 -1.692 -1.55 -1.415 -1.29 -1.171 -1.05 -0.941 -0.829 -0.724 -0.631 -0.532 -0.455 -0.392 -0.328 -0.284 -0.248 -0.235 -0.229 -0.222 -0.226 -0.256 -0.301 -0.354 -0.415 -0.485 -0.561 -0.637 -0.728 -0.833 -0.932 -1.038 -1.156 -1.277 -1.39 -1.517 -1.644 -1.765 -1.899 -2.037 -2.172 -2.305 -2.776 -2.621 -2.472 -2.33 -2.188 -2.044 -1.896 -1.752 -1.613 -1.48 -1.361 -1.238 -1.115 -1.001 -0.886 -0.778 -0.672 -0.583 -0.506 -0.422 -0.359 -0.302 -0.263 -0.24 -0.211 -0.206 -0.21 -0.236 -0.264 -0.31 -0.361 -0.425 -0.492 -0.569 -0.662 -0.763 -0.86 -0.965 -1.076 -1.189 -1.305 -1.433 -1.554 -1.681 -1.818 -1.947 -2.077 -2.217 -2.85 -2.697 -2.55 -2.406 -2.263 -2.113 -1.968 -1.826 -1.687 -1.56 -1.432 -1.306 -1.186 -1.068 -0.954 -0.839 -0.734 -0.644 -0.554 -0.474 -0.397 -0.339 -0.297 -0.262 -0.227 -0.21 -0.207 -0.223 -0.242 -0.277 -0.327 -0.382 -0.436 -0.516 -0.601 -0.697 -0.791 -0.898 -0.999 -1.112 -1.232 -1.354 -1.478 -1.606 -1.737 -1.863 -1.997 -2.133 -2.929 -2.779 -2.633 -2.487 -2.335 -2.188 -2.046 -1.907 -1.778 -1.646 -1.516 -1.385 -1.264 -1.148 -1.032 -0.921 -0.819 -0.724 -0.627 -0.53 -0.464 -0.402 -0.346 -0.296 -0.259 -0.236 -0.23 -0.226 -0.242 -0.267 -0.302 -0.343 -0.404 -0.481 -0.557 -0.648 -0.743 -0.833 -0.937 -1.052 -1.168 -1.278 -1.405 -1.532 -1.657 -1.786 -1.918 -2.051 -3.014 -2.865 -2.718 -2.569 -2.418 -2.272 -2.133 -2.0 -1.871 -1.734 -1.598 -1.472 -1.352 -1.233 -1.108 -0.999 -0.9 -0.802 -0.697 -0.608 -0.537 -0.46 -0.403 -0.351 -0.307 -0.266 -0.252 -0.241 -0.254 -0.269 -0.291 -0.336 -0.387 -0.452 -0.529 -0.617 -0.695 -0.782 -0.89 -0.998 -1.106 -1.221 -1.346 -1.467 -1.588 -1.715 -1.848 -1.982 -3.106 -2.957 -2.809 -2.655 -2.507 -2.366 -2.233 -2.102 -1.964 -1.824 -1.693 -1.574 -1.442 -1.327 -1.207 -1.098 -0.996 -0.886 -0.787 -0.702 -0.619 -0.541 -0.483 -0.418 -0.369 -0.335 -0.301 -0.288 -0.282 -0.283 -0.298 -0.337 -0.387 -0.437 -0.516 -0.581 -0.657 -0.753 -0.848 -0.954 -1.061 -1.173 -1.29 -1.407 -1.528 -1.656 -1.789 -1.923 -3.203 -3.053 -2.9 -2.751 -2.607 -2.468 -2.338 -2.203 -2.064 -1.928 -1.805 -1.67 -1.545 -1.43 -1.316 -1.21 -1.094 -0.983 -0.883 -0.799 -0.72 -0.644 -0.566 -0.496 -0.444 -0.403 -0.366 -0.337 -0.326 -0.315 -0.334 -0.366 -0.398 -0.448 -0.507 -0.562 -0.641 -0.728 -0.817 -0.918 -1.022 -1.131 -1.239 -1.348 -1.474 -1.603 -1.735 -1.868 -3.3 -3.149 -3.0 -2.853 -2.712 -2.578 -2.445 -2.307 -2.171 -2.04 -1.911 -1.782 -1.659 -1.539 -1.427 -1.317 -1.202 -1.095 -0.996 -0.902 -0.821 -0.744 -0.66 -0.587 -0.528 -0.481 -0.442 -0.404 -0.382 -0.366 -0.386 -0.403 -0.426 -0.471 -0.509 -0.564 -0.638 -0.719 -0.8 -0.897 -0.997 -1.088 -1.196 -1.307 -1.437 -1.56 -1.689 -1.819 -3.401 -3.251 -3.105 -2.962 -2.826 -2.692 -2.553 -2.415 -2.281 -2.15 -2.02 -1.893 -1.771 -1.655 -1.543 -1.43 -1.309 -1.208 -1.116 -1.02 -0.927 -0.836 -0.766 -0.692 -0.63 -0.573 -0.523 -0.485 -0.453 -0.44 -0.445 -0.451 -0.469 -0.485 -0.53 -0.59 -0.651 -0.722 -0.799 -0.889 -0.968 -1.061 -1.172 -1.291 -1.409 -1.529 -1.65 -1.773 -3.505 -3.359 -3.218 -3.077 -2.943 -2.806 -2.666 -2.531 -2.397 -2.266 -2.136 -2.011 -1.891 -1.778 -1.658 -1.545 -1.433 -1.333 -1.232 -1.137 -1.043 -0.954 -0.872 -0.803 -0.733 -0.666 -0.619 -0.568 -0.539 -0.525 -0.514 -0.514 -0.512 -0.534 -0.573 -0.62 -0.674 -0.741 -0.804 -0.876 -0.96 -1.053 -1.168 -1.275 -1.384 -1.499 -1.616 -1.736 -3.617 -3.473 -3.334 -3.198 -3.06 -2.923 -2.786 -2.652 -2.519 -2.387 -2.26 -2.136 -2.019 -1.897 -1.781 -1.669 -1.562 -1.457 -1.357 -1.26 -1.17 -1.075 -0.994 -0.918 -0.839 -0.774 -0.721 -0.671 -0.635 -0.619 -0.597 -0.578 -0.578 -0.601 -0.632 -0.665 -0.714 -0.761 -0.819 -0.89 -0.968 -1.065 -1.166 -1.263 -1.373 -1.482 -1.588 -1.709 -3.731 -3.592 -3.457 -3.316 -3.181 -3.043 -2.909 -2.775 -2.645 -2.514 -2.389 -2.268 -2.147 -2.026 -1.91 -1.8 -1.694 -1.588 -1.488 -1.392 -1.295 -1.201 -1.121 -1.036 -0.963 -0.899 -0.831 -0.785 -0.746 -0.714 -0.681 -0.66 -0.668 -0.674 -0.694 -0.72 -0.754 -0.794 -0.848 -0.91 -0.994 -1.082 -1.167 -1.259 -1.364 -1.463 -1.58 -1.7 -3.852 -3.717 -3.576 -3.439 -3.303 -3.167 -3.032 -2.901 -2.771 -2.644 -2.522 -2.4 -2.279 -2.161 -2.047 -1.937 -1.828 -1.72 -1.62 -1.525 -1.425 -1.335 -1.249 -1.163 -1.088 -1.016 -0.958 -0.907 -0.86 -0.813 -0.777 -0.761 -0.762 -0.76 -0.771 -0.783 -0.808 -0.839 -0.885 -0.963 -1.033 -1.104 -1.181 -1.267 -1.355 -1.466 -1.579 -1.679 -3.979 -3.839 -3.702 -3.565 -3.428 -3.293 -3.16 -3.029 -2.903 -2.78 -2.657 -2.536 -2.412 -2.297 -2.186 -2.074 -1.963 -1.858 -1.758 -1.661 -1.562 -1.468 -1.382 -1.299 -1.215 -1.144 -1.087 -1.03 -0.974 -0.922 -0.884 -0.867 -0.861 -0.852 -0.845 -0.85 -0.872 -0.899 -0.959 -1.012 -1.069 -1.133 -1.21 -1.283 -1.371 -1.478 -1.57 -1.674 -4.105 -3.966 -3.829 -3.692 -3.557 -3.423 -3.291 -3.163 -3.041 -2.919 -2.793 -2.667 -2.548 -2.44 -2.324 -2.211 -2.105 -2.001 -1.9 -1.794 -1.697 -1.608 -1.521 -1.433 -1.349 -1.287 -1.213 -1.149 -1.086 -1.046 -1.014 -0.993 -0.966 -0.946 -0.936 -0.935 -0.944 -0.988 -1.031 -1.07 -1.118 -1.174 -1.246 -1.321 -1.393 -1.468 -1.566 -1.677 -4.234 -4.096 -3.959 -3.823 -3.689 -3.556 -3.427 -3.303 -3.181 -3.055 -2.927 -2.806 -2.693 -2.578 -2.461 -2.352 -2.25 -2.146 -2.038 -1.933 -1.841 -1.745 -1.653 -1.567 -1.49 -1.422 -1.348 -1.269 -1.212 -1.174 -1.142 -1.112 -1.067 -1.043 -1.036 -1.025 -1.043 -1.076 -1.097 -1.133 -1.177 -1.225 -1.294 -1.352 -1.408 -1.483 -1.58 -1.694 -4.365 -4.228 -4.092 -3.957 -3.824 -3.693 -3.568 -3.444 -3.319 -3.191 -3.067 -2.951 -2.836 -2.717 -2.604 -2.501 -2.391 -2.29 -2.179 -2.078 -1.983 -1.882 -1.795 -1.714 -1.639 -1.559 -1.483 -1.406 -1.355 -1.308 -1.27 -1.223 -1.184 -1.156 -1.136 -1.133 -1.153 -1.153 -1.172 -1.207 -1.241 -1.294 -1.322 -1.366 -1.436 -1.521 -1.618 -1.73 -4.496 -4.359 -4.224 -4.09 -3.958 -3.832 -3.707 -3.582 -3.456 -3.332 -3.214 -3.098 -2.978 -2.861 -2.754 -2.644 -2.54 -2.43 -2.323 -2.229 -2.124 -2.028 -1.947 -1.863 -1.779 -1.697 -1.619 -1.557 -1.502 -1.445 -1.388 -1.344 -1.3 -1.272 -1.249 -1.255 -1.25 -1.253 -1.264 -1.283 -1.331 -1.345 -1.365 -1.408 -1.477 -1.568 -1.671 -1.785 -4.628 -4.492 -4.358 -4.225 -4.098 -3.972 -3.848 -3.721 -3.599 -3.479 -3.36 -3.242 -3.123 -3.011 -2.902 -2.793 -2.685 -2.576 -2.475 -2.375 -2.272 -2.183 -2.093 -2.008 -1.924 -1.839 -1.766 -1.705 -1.646 -1.572 -1.513 -1.472 -1.428 -1.403 -1.382 -1.37 -1.356 -1.35 -1.356 -1.381 -1.377 -1.391 -1.427 -1.474 -1.539 -1.626 -1.731 -1.851 -4.762 -4.627 -4.494 -4.365 -4.239 -4.115 -3.987 -3.865 -3.745 -3.624 -3.503 -3.388 -3.272 -3.163 -3.052 -2.943 -2.833 -2.729 -2.625 -2.523 -2.425 -2.335 -2.243 -2.154 -2.065 -1.99 -1.919 -1.852 -1.779 -1.709 -1.649 -1.607 -1.567 -1.541 -1.511 -1.484 -1.468 -1.456 -1.462 -1.45 -1.437 -1.45 -1.49 -1.552 -1.621 -1.704 -1.805 -1.922 -6.19 -6.004 -5.819 -5.636 -5.453 -5.272