# vtk DataFile Version 5.1
vtk output
ASCII
DATASET POLYDATA
POINTS 50 float
0 0 3.67394e-15 0.0616382 0 1.92211 0.2463 0 3.83631 
0.553225 0 5.73476 0.981154 0 7.60964 1.52833 0 9.45325 
2.1925 0 11.258 2.97093 0 13.0165 3.86044 0 14.7215 
4.85736 0 16.366 5.95759 0 17.9433 7.15662 0 19.4469 
8.44952 0 20.8705 9.83097 0 22.2083 11.2953 0 23.4549 
12.8365 0 24.6052 14.4482 0 25.6543 16.1239 0 26.598 
17.8565 0 27.4324 19.639 0 28.1541 21.4642 0 28.76 
23.3244 0 29.2478 25.212 0 29.6155 27.1193 0 29.8614 
29.0385 0 29.9846 30.9615 0 29.9846 32.8807 0 29.8614 
34.788 0 29.6155 36.6756 0 29.2478 38.5358 0 28.76 
40.361 0 28.1541 42.1435 0 27.4324 43.8761 0 26.598 
45.5518 0 25.6543 47.1635 0 24.6052 48.7047 0 23.4549 
50.169 0 22.2083 51.5505 0 20.8705 52.8434 0 19.4469 
54.0424 0 17.9433 55.1426 0 16.366 56.1396 0 14.7215 
57.0291 0 13.0165 57.8075 0 11.258 58.4717 0 9.45325 
59.0188 0 7.60964 59.4468 0 5.73476 59.7537 0 3.83631 
59.9384 0 1.92211 60 0 0 
LINES 2 50
OFFSETS vtktypeint64
0 50 
CONNECTIVITY vtktypeint64
0 1 2 3 4 5 6 7 8 
9 10 11 12 13 14 15 16 17 
18 19 20 21 22 23 24 25 26 
27 28 29 30 31 32 33 34 35 
36 37 38 39 40 41 42 43 44 
45 46 47 48 49 
POINT_DATA 50
SCALARS scalars float
LOOKUP_TABLE default
3 3 3 3 3 3 3 3 3 
3 3 3 3 3 3 3 3 3 
3 3 3 3 3 3 3 3 3 
3 3 3 3 3 3 3 3 3 
3 3 3 3 3 3 3 3 3 
3 3 3 3 3 
METADATA
INFORMATION 0

