# vtk DataFile Version 4.2
 vtk output
ASCII
DATASET STRUCTURED_POINTS
DIMENSIONS 136 17 71
SPACING 0.5 0.5 0.5
ORIGIN -3.9984586 -4.0 -1.0961547
POINT_DATA  164152
SCALARS u float 1
LOOKUP_TABLE default
2.9016292095184326 2.5899059772491455 2.3087966442108154 2.065063714981079 1.8616642951965332 1.7019222974777222 1.5859034061431885 1.5135860443115234 1.483755350112915 1.4963157176971436 1.553238034248352 1.6580429077148438 1.8119008541107178 2.011023759841919 2.2558133602142334 2.5378406047821045 2.851881504058838 3.193009853363037 3.556032180786133 3.936978816986084 4.335216999053955 4.744901657104492 5.1654863357543945 5.59519624710083 6.033149719238281 6.475915431976318 6.926458835601807 7.380462646484375 7.838040351867676 8.30051326751709 8.76684856414795 9.234292030334473 9.704224586486816 10.177023887634277 10.652307510375977 11.129721641540527 11.607902526855469 12.08681583404541 12.567354202270508 13.049355506896973 13.532663345336914 14.017141342163086 14.502674102783203 14.989150047302246 15.476012229919434 15.963001251220703 16.45064353942871 16.939002990722656 17.428024291992188 17.917652130126953 18.407835006713867 18.898534774780273 19.38970947265625 19.881322860717773 20.37334632873535 20.865747451782227 21.358501434326172 21.851585388183594 22.344900131225586 22.838247299194336 23.33163070678711 23.825233459472656 24.319095611572266 24.81320571899414 25.307546615600586 25.802104949951172 26.2968692779541 26.791828155517578 27.283918380737305 26.788776397705078 26.293819427490234 25.799057006835938 25.30449867248535 24.81015968322754 24.316051483154297 23.822189331054688 23.328588485717773 22.835206985473633 22.341859817504883 21.84854507446289 21.3554630279541 20.86271095275879 20.370311737060547 19.8782901763916 19.386680603027344 18.895509719848633 18.40481185913086 17.914630889892578 17.425006866455078 16.935991287231445 16.447635650634766 15.959999084472656 15.473010063171387 14.986148834228516 14.499679565429688 14.014153480529785 13.529682159423828 13.046382904052734 12.564390182495117 12.083860397338867 11.60495376586914 11.126773834228516 10.649371147155762 10.174100875854492 9.701318740844727 9.231404304504395 8.763969421386719 8.297649383544922 7.835204601287842 7.377659797668457 6.923664569854736 6.473161697387695 6.030444622039795 5.592510223388672 5.162875175476074 4.742323875427246 4.3327460289001465 3.9345712661743164 3.553708553314209 3.1908323764801025 2.8498663902282715 2.536001205444336 2.254163980484009 2.0096535682678223 1.8108081817626953 1.6572970151901245 1.5527336597442627 1.4960600137710571 1.4837629795074463 1.5138554573059082 1.5864462852478027 1.7027614116668701 1.862821102142334 2.066408395767212 2.3104474544525146 2.5917551517486572 2.5942351818084717 2.27166485786438 1.9834450483322144 1.7380872964859009 1.5397670269012451 1.392498254776001 1.2922016382217407 1.2318129539489746 1.204623818397522 1.2080764770507812 1.2472283840179443 1.3324799537658691 1.472076177597046 1.666829228401184 1.9154260158538818 2.2070651054382324 2.534357786178589 2.890533208847046 3.2690329551696777 3.6649491786956787 4.077782154083252 4.500392913818359 4.934476852416992 5.374747276306152 5.8241868019104 6.27680778503418 6.735128402709961 7.198937892913818 7.6648335456848145 8.133235931396484 8.605193138122559 9.080154418945312 9.557249069213867 10.034841537475586 10.514054298400879 10.995118141174316 11.477801322937012 11.961905479431152 12.447267532348633 12.933576583862305 13.420075416564941 13.907005310058594 14.394824028015137 14.883452415466309 15.372812271118164 15.862834930419922 16.353464126586914 16.844642639160156 17.336326599121094 17.82847023010254 18.321043014526367 18.814002990722656 19.30714988708496 19.80033302307129 20.293611526489258 20.78719139099121 21.28107452392578 21.77523422241211 22.269655227661133 22.764320373535156 23.259214401245117 23.75432014465332 24.2496280670166 24.74512481689453 25.240798950195312 25.73663902282715 26.23263931274414 26.728788375854492 27.222017288208008 26.72572898864746 26.22957992553711 25.733583450317383 25.237743377685547 24.742069244384766 24.24657440185547 23.751266479492188 23.256162643432617 22.76127052307129 22.2666072845459 21.772188186645508 21.27802848815918 20.784149169921875 20.290569305419922 19.797292709350586 19.304109573364258 18.810964584350586 18.318002700805664 17.825435638427734 17.333293914794922 16.84161376953125 16.35043716430664 15.859813690185547 15.369793891906738 14.880439758300781 14.391816139221191 13.904001235961914 13.417078018188477 12.930580139160156 12.444273948669434 11.958919525146484 11.474822998046875 10.992149353027344 10.511096000671387 10.031895637512207 9.55430793762207 9.077218055725098 8.602273941040039 8.13033676147461 7.661958694458008 7.196070194244385 6.732285976409912 6.274003028869629 5.821403980255127 5.372002601623535 4.931792736053467 4.497738838195801 4.075216293334961 3.6624531745910645 3.2666213512420654 2.8882670402526855 2.532258987426758 2.2051589488983154 1.913739800453186 1.665464162826538 1.4710272550582886 1.3318026065826416 1.2468640804290771 1.2079486846923828 1.204673409461975 1.2321099042892456 1.2927080392837524 1.3932774066925049 1.540873646736145 1.7394294738769531 1.9851335287094116 2.2735636234283447 2.3193373680114746 1.9902632236480713 1.7033703327178955 1.469158411026001 1.2991605997085571 1.1926602125167847 1.1376562118530273 1.1121830940246582 1.0955426692962646 1.0806034803390503 1.077810525894165 1.1114885807037354 1.2070215940475464 1.3759253025054932 1.6152534484863281 1.9096219539642334 2.247065305709839 2.6170401573181152 3.0106334686279297 3.4206511974334717 3.846959352493286 4.2823286056518555 4.728508949279785 5.179324150085449 5.638177394866943 6.101352691650391 6.567119121551514 7.037534236907959 7.511763095855713 7.9877166748046875 8.464766502380371 8.944246292114258 9.425859451293945 9.909294128417969 10.394293785095215 10.880017280578613 11.366000175476074 11.852938652038574 12.340921401977539 12.829830169677734 13.319561958312988 13.810029983520508 14.30115795135498 14.79288101196289 15.285140037536621 15.77785873413086 16.270719528198242 16.76363754272461 17.25677490234375 17.750295639038086 18.244169235229492 18.73836898803711 19.232868194580078 19.727643966674805 20.222675323486328 20.71794891357422 21.213441848754883 21.709142684936523 22.205034255981445 22.701107025146484 23.197349548339844 23.693748474121094 24.190296173095703 24.68698501586914 25.183801651000977 25.680744171142578 26.17780303955078 26.674970626831055 27.169178009033203 26.671905517578125 26.17473793029785 25.67768096923828 25.180740356445312 24.683921813964844 24.18723487854004 23.690689086914062 23.19428825378418 22.698049545288086 22.201976776123047 21.706085205078125 21.210386276245117 20.714893341064453 20.219623565673828 19.724592208862305 19.22981834411621 18.735321044921875 18.241125106811523 17.74725341796875 17.253734588623047 16.76059913635254 16.26767921447754 15.774821281433105 15.2821044921875 14.789848327636719 14.298129081726074 13.807004928588867 13.31654167175293 12.826813697814941 12.337911605834961 11.849934577941895 11.36300277709961 10.87702465057373 10.391301155090332 9.90631103515625 9.422886848449707 8.941286087036133 8.461819648742676 7.984783172607422 7.50883150100708 7.034621715545654 6.56423282623291 6.098495960235596 5.63532829284668 5.176519870758057 4.725750923156738 4.279603481292725 3.8443148136138916 3.418060779571533 3.0081427097320557 2.6147043704986572 2.2449049949645996 1.907691240310669 1.6136035919189453 1.374624252319336 1.2062071561813354 1.111114740371704 1.0777391195297241 1.0806807279586792 1.0956414937973022 1.1122978925704956 1.1378684043884277 1.1931524276733398 1.3000298738479614 1.4703929424285889 1.7049967050552368 1.9921603202819824 2.0818634033203125 1.7525355815887451 1.4792789220809937 1.281592607498169 1.173466682434082 1.143619418144226 1.1275936365127563 1.1115678548812866 1.0955421924591064 1.0795164108276367 1.063490629196167 1.0474648475646973 1.055594563484192 1.1605823040008545 1.366669774055481 1.6543097496032715 1.9968068599700928 2.3765885829925537 2.7837014198303223 3.207610845565796 3.645385503768921 4.092979431152344 4.549797058105469 5.010448455810547 5.477629661560059 5.949688911437988 6.423332214355469 6.899744987487793 7.379279613494873 7.861364364624023 8.345335960388184 8.829880714416504 9.315220832824707 9.802016258239746 10.290079116821289 10.77923583984375 11.269343376159668 11.760284423828125 12.251958847045898 12.744165420532227 13.236515045166016 13.728991508483887 14.221881866455078 14.715251922607422 15.20905590057373 15.703250885009766 16.197803497314453 16.69268035888672 17.18785285949707 17.683298110961914 18.178991317749023 18.674915313720703 19.171051025390625 19.667381286621094 20.163894653320312 20.66057586669922 21.157413482666016 21.654394149780273 22.151514053344727 22.648757934570312 23.146059036254883 23.643383026123047 24.14072036743164 24.638080596923828 25.135513305664062 25.633045196533203 26.130672454833984 26.628387451171875 27.123117446899414 26.62531852722168 26.12760353088379 25.62997817993164 25.1324462890625 24.635013580322266 24.137653350830078 23.640316009521484 23.142995834350586 22.64569091796875 22.148448944091797 21.651330947875977 21.15435028076172 20.657512664794922 20.16083335876465 19.664321899414062 19.167991638183594 18.671857833862305 18.175935745239258 17.68024253845215 17.184799194335938 16.68962860107422 16.194753646850586 15.700203895568848 15.206009864807129 14.712209701538086 14.218841552734375 13.725954055786133 13.233479499816895 12.741130828857422 12.248926162719727 11.757257461547852 11.266321182250977 10.776217460632324 10.287067413330078 9.799012184143066 9.312225341796875 8.826891899108887 8.342350959777832 7.858387470245361 7.376317024230957 6.896799564361572 6.420408248901367 5.946773529052734 5.474732398986816 5.007587909698486 4.546970367431641 4.090184211730957 3.642669677734375 3.2049331665039062 2.7811503410339355 2.374157667160034 1.9945400953292847 1.6523202657699585 1.3651134967803955 1.159615159034729 1.0552915334701538 1.0475637912750244 1.0635894536972046 1.0796152353286743 1.095641016960144 1.1116666793823242 1.1276922225952148 1.1437181234359741 1.1738542318344116 1.2825515270233154 1.4807286262512207 1.7544234991073608 1.8889737129211426 1.567381739616394 1.3232877254486084 1.1882860660552979 1.1596451997756958 1.143619418144226 1.1275936365127563 1.1115678548812866 1.0955421924591064 1.0795164108276367 1.063490629196167 1.0474648475646973 1.031438946723938 1.041278600692749 1.1845686435699463 1.4474891424179077 1.7885065078735352 2.1761550903320312 2.5915091037750244 3.0285303592681885 3.475935935974121 3.934713125228882 4.400382041931152 4.86964225769043 5.344221115112305 5.823055267333984 6.304171562194824 6.786347389221191 7.27053689956665 7.75673246383667 8.244579315185547 8.733800888061523 9.2241792678833 9.715216636657715 10.206524848937988 10.69817066192627 11.190512657165527 11.683505058288574 12.177069664001465 12.671137809753418 13.165655136108398 13.660571098327637 14.155843734741211 14.651437759399414 15.147322654724121 15.643467903137207 16.13985252380371 16.63645362854004 17.133251190185547 17.63019561767578 18.1271915435791 18.62422752380371 19.12130355834961 19.618444442749023 20.115724563598633 20.613136291503906 21.11067008972168 21.608318328857422 22.10607147216797 22.603923797607422 23.101869583129883 23.599903106689453 24.0980167388916 24.596206665039062 25.09446907043457 25.59280014038086 26.09119415283203 26.589649200439453 27.085084915161133 26.586576461791992 26.08812141418457 25.5897274017334 25.091398239135742 24.593135833740234 24.094945907592773 23.596832275390625 23.098800659179688 22.600854873657227 22.103002548217773 21.605249404907227 21.107603073120117 20.610069274902344 20.112659454345703 19.615381240844727 19.118240356445312 18.62116241455078 18.124128341674805 17.627134323120117 17.13018798828125 16.633390426635742 16.136791229248047 15.640408515930176 15.144265174865723 14.648382186889648 14.152790069580078 13.65751838684082 13.162605285644531 12.6680908203125 12.174025535583496 11.680463790893555 11.18747615814209 10.695137977600098 10.203496932983398 9.712187767028809 9.22115421295166 8.730782508850098 8.241568565368652 7.753730773925781 7.2675461769104 6.783370494842529 6.301204681396484 5.820095062255859 5.341283321380615 4.866734504699707 4.397502422332764 3.931854248046875 3.4731431007385254 3.025799512863159 2.5888781547546387 2.173657178878784 1.7862530946731567 1.4456112384796143 1.1832866668701172 1.0408390760421753 1.0315381288528442 1.0475637912750244 1.0635894536972046 1.0796152353286743 1.095641016960144 1.1116666793823242 1.1276922225952148 1.1437181234359741 1.1597436666488647 1.1887394189834595 1.3244867324829102 1.5691478252410889 1.7398028373718262 1.4344768524169922 1.2342859506607056 1.1756709814071655 1.1596453189849854 1.143619418144226 1.1275936365127563 1.1115678548812866 1.0955421924591064 1.0795164108276367 1.063490629196167 1.0474648475646973 1.031438946723938 1.0154131650924683 1.0716252326965332 1.2941681146621704 1.624975323677063 2.014861822128296 2.44051456451416 2.8845014572143555 3.3418009281158447 3.8094396591186523 4.281952381134033 4.75834846496582 5.239090919494629 5.723134517669678 6.209653854370117 6.697453022003174 7.186079025268555 7.675708770751953 8.16659164428711 8.65851879119873 9.151320457458496 9.644864082336426 10.139039993286133 10.633759498596191 11.128952026367188 11.624555587768555 12.120511054992676 12.61665153503418 13.1129150390625 13.60929012298584 14.105772018432617 14.602458953857422 15.099364280700684 15.596467971801758 16.09375 16.591196060180664 17.088790893554688 17.586523056030273 18.084379196166992 18.582351684570312 19.080429077148438 19.57860565185547 20.076871871948242 20.57522201538086 21.073650360107422 21.572153091430664 22.070722579956055 22.569355010986328 23.06804656982422 23.56679344177246 24.065593719482422 24.56443977355957 25.063335418701172 25.562271118164062 26.061250686645508 26.560266494750977 27.056243896484375 26.55718994140625 26.05817413330078 25.55919647216797 25.060258865356445 24.561365127563477 24.062517166137695 23.563718795776367 23.064971923828125 22.566280364990234 22.06764793395996 21.569080352783203 21.07057762145996 20.5721492767334 20.07379913330078 19.575532913208008 19.07735824584961 18.579280853271484 18.081310272216797 17.583454132080078 17.085723876953125 16.5881290435791 16.090682983398438 15.593402862548828 15.09630012512207 14.599395751953125 14.102710723876953 13.606230735778809 13.109853744506836 12.613592147827148 12.117451667785645 11.621499061584473 11.125898361206055 10.630708694458008 10.135992050170898 9.641819953918457 9.14828109741211 8.65548324584961 8.163562774658203 7.672685623168945 7.183065891265869 6.694443225860596 6.2066521644592285 5.720142841339111 5.236117362976074 4.755398273468018 4.2790303230285645 3.8065407276153564 3.3389461040496826 2.881728172302246 2.437819480895996 2.0123391151428223 1.6227079629898071 1.2924089431762695 1.0707306861877441 1.0155123472213745 1.0315381288528442 1.0475637912750244 1.0635894536972046 1.0796152353286743 1.095641016960144 1.1116666793823242 1.1276922225952148 1.1437181234359741 1.1597436666488647 1.175769329071045 1.2350987195968628 1.436087965965271 1.6358990669250488 1.3505851030349731 1.198434829711914 1.1756709814071655 1.1596453189849854 1.143619418144226 1.1275936365127563 1.1115678548812866 1.0955421924591064 1.0795164108276367 1.063490629196167 1.0474648475646973 1.031438946723938 1.0154131650924683 1.0184096097946167 1.1927329301834106 1.5081660747528076 1.900079607963562 2.3287460803985596 2.780153274536133 3.24544358253479 3.718212604522705 4.195880889892578 4.677835464477539 5.163222789764404 5.651158809661865 6.141036033630371 6.632424354553223 7.124882221221924 7.618034362792969 8.1117525100708 8.605937957763672 9.100614547729492 9.595842361450195 10.091540336608887 10.587642669677734 11.08409595489502 11.580854415893555 12.077879905700684 12.575140953063965 13.072611808776855 13.570267677307129 14.068090438842773 14.566061973571777 15.064167976379395 15.562396049499512 16.060733795166016 16.559171676635742 17.057701110839844 17.55631446838379 18.055004119873047 18.55376434326172 19.052589416503906 19.55147361755371 20.0504150390625 20.549407958984375 21.048446655273438 21.54753303527832 22.04665756225586 22.54582405090332 23.04502296447754 23.544260025024414 24.04352569580078 24.542823791503906 25.042146682739258 25.5414981842041 26.040874481201172 26.540266036987305 27.036592483520508 26.537187576293945 26.037796020507812 25.538419723510742 25.0390682220459 24.539743423461914 24.040447235107422 23.541181564331055 23.041946411132812 22.54274559020996 22.043581008911133 21.54445457458496 21.045372009277344 20.54633140563965 20.047338485717773 19.548398971557617 19.04951286315918 18.550687789916992 18.051929473876953 17.553239822387695 17.054628372192383 16.55609893798828 16.057661056518555 15.559324264526367 15.061097145080566 14.562992095947266 14.065021514892578 13.56719970703125 13.069543838500977 12.572074890136719 12.074814796447754 11.577791213989258 11.081034660339355 10.584583282470703 10.088482856750488 9.592787742614746 9.097562789916992 8.602890014648438 8.108708381652832 7.614991188049316 7.12184476852417 6.629390716552734 6.138010501861572 5.648144245147705 5.160221576690674 4.67485237121582 4.192922592163086 3.715280771255493 3.2425501346588135 2.777320623397827 2.326026201248169 1.897527813911438 1.505926489830017 1.191144347190857 1.0179537534713745 1.015512228012085 1.0315381288528442 1.0475637912750244 1.0635894536972046 1.0796152353286743 1.095641016960144 1.1116666793823242 1.1276922225952148 1.1437181234359741 1.1597436666488647 1.175769329071045 1.198843240737915 1.3520007133483887 1.5757591724395752 1.3066000938415527 1.1917073726654053 1.1756709814071655 1.1596453189849854 1.143619418144226 1.1275936365127563 1.1115678548812866 1.0955421924591064 1.0795164108276367 1.063490629196167 1.0474648475646973 1.031438946723938 1.0154131650924683 1.002384901046753 1.1371463537216187 1.439117670059204 1.8295488357543945 2.2626497745513916 2.7179946899414062 3.186060905456543 3.6620442867279053 4.143617630004883 4.629100322723389 5.1173787117004395 5.607723712921143 6.099636077880859 6.592765808105469 7.08685827255249 7.581725597381592 8.077224731445312 8.573246955871582 9.06970500946045 9.566533088684082 10.063673973083496 10.56106948852539 11.058675765991211 11.55646800994873 12.054424285888672 12.552521705627441 13.050745964050293 13.54908275604248 14.04751968383789 14.546048164367676 15.044657707214355 15.543340682983398 16.042089462280273 16.540910720825195 17.0398006439209 17.538753509521484 18.037765502929688 18.536828994750977 19.03594207763672 19.53510284423828 20.034303665161133 20.53354263305664 21.032817840576172 21.532127380371094 22.031469345092773 22.530838012695312 23.030237197875977 23.529659271240234 24.02910614013672 24.528575897216797 25.028066635131836 25.527578353881836 26.02710723876953 26.526655197143555 27.02313804626465 26.523574829101562 26.02402687072754 25.524497985839844 25.024988174438477 24.525497436523438 24.02602767944336 23.526580810546875 23.027158737182617 22.527761459350586 22.028390884399414 21.529050827026367 21.029741287231445 20.530466079711914 20.031225204467773 19.532024383544922 19.032865524291992 18.53375244140625 18.03468894958496 17.53567886352539 17.036724090576172 16.5378360748291 16.03901481628418 15.540266036987305 15.041583061218262 14.542973518371582 14.044445037841797 13.546010971069336 13.047674179077148 12.549449920654297 12.051352500915527 11.553398132324219 11.055609703063965 10.558003425598145 10.060608863830566 9.563468933105469 9.066643714904785 8.57018756866455 8.07416820526123 7.578672885894775 7.083809852600098 6.589722633361816 6.09660005569458 5.6046953201293945 5.11436128616333 4.626097202301025 4.140635013580322 3.659090518951416 3.183147668838501 2.7151434421539307 2.259897470474243 1.826981782913208 1.4369202852249146 1.1357065439224243 1.002253532409668 1.0155123472213745 1.0315381288528442 1.0475637912750244 1.0635895729064941 1.0796152353286743 1.095641016960144 1.1116666793823242 1.1276922225952148 1.1437181234359741 1.1597436666488647 1.175769329071045 1.1918224096298218 1.3078548908233643 1.5561497211456299 1.2929043769836426 1.1916967630386353 1.1756709814071655 1.1596453189849854 1.143619418144226 1.1275936365127563 1.1115678548812866 1.0955421924591064 1.0795164108276367 1.063490629196167 1.0474648475646973 1.031438946723938 1.0154131650924683 1.0000046491622925 1.1194159984588623 1.4163949489593506 1.8053412437438965 2.238825559616089 2.6954445838928223 3.1652021408081055 3.643018960952759 4.126095771789551 4.612781047821045 5.102042198181152 5.593202590942383 6.0858025550842285 6.579519748687744 7.0741190910339355 7.569427967071533 8.065316200256348 8.56168270111084 9.058448791503906 9.555551528930664 10.052942276000977 10.550580024719238 11.048430442810059 11.546467781066895 12.044666290283203 12.543008804321289 13.041478157043457 13.540060043334961 14.03874397277832 14.537516593933105 15.036372184753418 15.535300254821777 16.0342960357666 16.53335189819336 17.03246307373047 17.531625747680664 18.030834197998047 18.53008460998535 19.029375076293945 19.528701782226562 20.02806282043457 20.527454376220703 21.026874542236328 21.526321411132812 22.025794982910156 22.52528953552246 23.024808883666992 23.52434730529785 24.023902893066406 24.523479461669922 25.0230712890625 25.522680282592773 26.022302627563477 26.521942138671875 27.018512725830078 26.518861770629883 26.019224166870117 25.51959991455078 25.01999282836914 24.52039909362793 24.020824432373047 23.52126693725586 23.021728515625 22.5222110748291 22.022714614868164 21.523242950439453 21.02379608154297 20.524375915527344 20.02498435974121 19.525623321533203 19.02629852294922 18.527008056640625 18.027755737304688 17.528547286987305 17.029386520385742 16.530275344848633 16.031219482421875 15.532224655151367 15.033296585083008 14.534441947937012 14.03566837310791 13.536986351013184 13.03840446472168 12.539936065673828 12.041594505310059 11.54339599609375 11.045360565185547 10.547511100769043 10.049875259399414 9.552486419677734 9.05538558959961 8.558621406555176 8.062257766723633 7.566372871398926 7.071067810058594 6.576473236083984 6.082762718200684 5.590169906616211 5.099019527435303 4.609772205352783 4.123105525970459 3.6400551795959473 3.1622776985168457 2.692582607269287 2.2360682487487793 1.8027758598327637 1.4142138957977295 1.1180343627929688 1.0000004768371582 1.015512228012085 1.0315381288528442 1.0475637912750244 1.0635895729064941 1.0796152353286743 1.095641016960144 1.1116666793823242 1.1276922225952148 1.1437181234359741 1.1597436666488647 1.175769329071045 1.1917951107025146 1.294098973274231 1.5757591724395752 1.3066000938415527 1.1917073726654053 1.1756709814071655 1.1596451997756958 1.143619418144226 1.127593755722046 1.1115678548812866 1.0955421924591064 1.0795164108276367 1.063490629196167 1.0474648475646973 1.031438946723938 1.0154131650924683 1.002384901046753 1.1371463537216187 1.439117670059204 1.8295488357543945 2.2626497745513916 2.7179946899414062 3.186060905456543 3.6620442867279053 4.143617630004883 4.629100322723389 5.1173787117004395 5.607723712921143 6.099636077880859 6.592765808105469 7.08685827255249 7.581725597381592 8.077224731445312 8.573246955871582 9.06970500946045 9.566533088684082 10.063673973083496 10.56106948852539 11.058675765991211 11.55646800994873 12.054424285888672 12.552521705627441 13.050745964050293 13.54908275604248 14.04751968383789 14.546048164367676 15.044657707214355 15.543340682983398 16.042089462280273 16.540910720825195 17.0398006439209 17.538753509521484 18.037765502929688 18.536828994750977 19.03594207763672 19.53510284423828 20.034303665161133 20.53354263305664 21.032817840576172 21.532127380371094 22.031469345092773 22.530838012695312 23.030237197875977 23.529659271240234 24.02910614013672 24.528575897216797 25.028066635131836 25.527578353881836 26.02710723876953 26.526655197143555 27.02313804626465 26.523574829101562 26.02402687072754 25.524497985839844 25.024988174438477 24.525497436523438 24.02602767944336 23.526580810546875 23.027158737182617 22.527761459350586 22.028390884399414 21.529050827026367 21.029741287231445 20.530466079711914 20.031225204467773 19.532024383544922 19.032865524291992 18.53375244140625 18.03468894958496 17.53567886352539 17.036724090576172 16.5378360748291 16.03901481628418 15.540266036987305 15.041583061218262 14.542973518371582 14.044445037841797 13.546010971069336 13.047674179077148 12.549449920654297 12.051352500915527 11.553398132324219 11.055609703063965 10.558003425598145 10.060608863830566 9.563468933105469 9.066643714904785 8.57018756866455 8.07416820526123 7.578672885894775 7.083809852600098 6.589722633361816 6.09660005569458 5.6046953201293945 5.11436128616333 4.626097202301025 4.140635013580322 3.659090518951416 3.183147668838501 2.7151434421539307 2.259897470474243 1.826981782913208 1.4369202852249146 1.1357065439224243 1.002253532409668 1.0155123472213745 1.0315381288528442 1.0475637912750244 1.0635895729064941 1.0796152353286743 1.095641016960144 1.1116666793823242 1.1276922225952148 1.1437180042266846 1.1597436666488647 1.175769329071045 1.1918224096298218 1.3078548908233643 1.6358990669250488 1.3505851030349731 1.198434829711914 1.1756709814071655 1.1596453189849854 1.143619418144226 1.127593755722046 1.1115678548812866 1.0955421924591064 1.0795164108276367 1.063490629196167 1.0474648475646973 1.031438946723938 1.0154131650924683 1.0184096097946167 1.1927329301834106 1.5081660747528076 1.900079607963562 2.3287460803985596 2.780153274536133 3.24544358253479 3.718212604522705 4.195880889892578 4.677835464477539 5.163222789764404 5.651158809661865 6.141036033630371 6.632424354553223 7.124882221221924 7.618034362792969 8.1117525100708 8.605937957763672 9.100614547729492 9.595842361450195 10.091540336608887 10.587642669677734 11.08409595489502 11.580854415893555 12.077879905700684 12.575140953063965 13.072611808776855 13.570267677307129 14.068090438842773 14.566061973571777 15.064167976379395 15.562396049499512 16.060733795166016 16.559171676635742 17.057701110839844 17.55631446838379 18.055004119873047 18.55376434326172 19.052589416503906 19.55147361755371 20.0504150390625 20.549407958984375 21.048446655273438 21.54753303527832 22.04665756225586 22.54582405090332 23.04502296447754 23.544260025024414 24.04352569580078 24.542823791503906 25.042146682739258 25.5414981842041 26.040874481201172 26.540266036987305 27.036592483520508 26.537187576293945 26.037796020507812 25.538419723510742 25.0390682220459 24.539743423461914 24.040447235107422 23.541181564331055 23.041946411132812 22.54274559020996 22.043581008911133 21.54445457458496 21.045372009277344 20.54633140563965 20.047338485717773 19.548398971557617 19.04951286315918 18.550687789916992 18.051929473876953 17.553239822387695 17.054628372192383 16.55609893798828 16.057661056518555 15.559324264526367 15.061097145080566 14.562992095947266 14.065021514892578 13.56719970703125 13.069543838500977 12.572074890136719 12.074814796447754 11.577791213989258 11.081034660339355 10.584583282470703 10.088482856750488 9.592787742614746 9.097562789916992 8.602890014648438 8.108708381652832 7.614991188049316 7.12184476852417 6.629390716552734 6.138010501861572 5.648144245147705 5.160221576690674 4.67485237121582 4.192922592163086 3.715280771255493 3.2425501346588135 2.777320623397827 2.326026201248169 1.897527813911438 1.505926489830017 1.191144347190857 1.0179537534713745 1.0155123472213745 1.0315381288528442 1.0475637912750244 1.0635895729064941 1.0796152353286743 1.095641016960144 1.1116666793823242 1.1276922225952148 1.1437180042266846 1.1597436666488647 1.175769329071045 1.198843240737915 1.3520007133483887 1.7398028373718262 1.4344768524169922 1.2342859506607056 1.1756709814071655 1.1596453189849854 1.143619418144226 1.1275936365127563 1.1115678548812866 1.0955421924591064 1.0795164108276367 1.063490629196167 1.0474648475646973 1.031438946723938 1.0154131650924683 1.0716252326965332 1.2941681146621704 1.624975323677063 2.014861822128296 2.44051456451416 2.8845014572143555 3.3418009281158447 3.8094396591186523 4.281952381134033 4.75834846496582 5.239090919494629 5.723134517669678 6.209653854370117 6.697453022003174 7.186079025268555 7.675708770751953 8.16659164428711 8.65851879119873 9.151320457458496 9.644864082336426 10.139039993286133 10.633759498596191 11.128952026367188 11.624555587768555 12.120511054992676 12.61665153503418 13.1129150390625 13.60929012298584 14.105772018432617 14.602458953857422 15.099364280700684 15.596467971801758 16.09375 16.591196060180664 17.088790893554688 17.586523056030273 18.084379196166992 18.582351684570312 19.080429077148438 19.57860565185547 20.076871871948242 20.57522201538086 21.073650360107422 21.572153091430664 22.070722579956055 22.569355010986328 23.06804656982422 23.56679344177246 24.065593719482422 24.56443977355957 25.063335418701172 25.562271118164062 26.061250686645508 26.560266494750977 27.056243896484375 26.55718994140625 26.05817413330078 25.55919647216797 25.060258865356445 24.561365127563477 24.062517166137695 23.563718795776367 23.064971923828125 22.566280364990234 22.06764793395996 21.569080352783203 21.07057762145996 20.5721492767334 20.07379913330078 19.575532913208008 19.07735824584961 18.579280853271484 18.081310272216797 17.583454132080078 17.085723876953125 16.5881290435791 16.090682983398438 15.593402862548828 15.09630012512207 14.599395751953125 14.102710723876953 13.606230735778809 13.109853744506836 12.613592147827148 12.117451667785645 11.621499061584473 11.125898361206055 10.630708694458008 10.135992050170898 9.641819953918457 9.14828109741211 8.65548324584961 8.163562774658203 7.672685623168945 7.183065891265869 6.694443225860596 6.2066521644592285 5.7201428413391