# vtk DataFile Version 5.1
vtk output
ASCII
DATASET POLYDATA
POINTS 237 float
-2.42474e-07 -8.8337e-09 9.44403e-09 -0.0478568 -0.0847731 0.0232075 -0.0957002 -0.169566 0.0464086 
-0.143519 -0.254393 0.0695983 -0.191298 -0.339266 0.0927718 -0.239022 -0.424196 0.115924 
-0.286671 -0.509192 0.13905 -0.334225 -0.594264 0.162145 -0.381663 -0.679419 0.185205 
-0.428966 -0.764665 0.208225 -0.476115 -0.850006 0.231202 -0.523094 -0.935449 0.254135 
-0.569892 -1.021 0.277023 -0.616502 -1.10665 0.299869 -0.66292 -1.19241 0.32268 
-0.709152 -1.27827 0.345467 -0.755209 -1.36422 0.368245 -0.80111 -1.45024 0.391039 
-0.846884 -1.5363 0.41388 -0.892567 -1.62238 0.436806 -0.938208 -1.70843 0.45987 
-0.983861 -1.79441 0.483129 -1.02959 -1.88025 0.506657 -1.07546 -1.96589 0.530534 
-1.12155 -2.05126 0.554852 -1.16792 -2.13627 0.579711 -1.21464 -2.22085 0.605218 
-1.26178 -2.30491 0.631483 -1.30939 -2.38836 0.658617 -1.35752 -2.47111 0.686729 
-1.40622 -2.55309 0.715923 -1.45551 -2.63419 0.746298 -1.50544 -2.71433 0.777943 
-1.55604 -2.79342 0.810941 -1.60732 -2.87134 0.845366 -1.65932 -2.94801 0.881286 
-1.71204 -3.02331 0.918762 -1.76552 -3.09713 0.957852 -1.81974 -3.16937 0.998607 
-1.87473 -3.23991 1.04107 -1.93047 -3.30865 1.08529 -1.98693 -3.37549 1.13128 
-2.04411 -3.44035 1.17908 -2.10197 -3.50314 1.22868 -2.16047 -3.56381 1.28009 
-2.21955 -3.62229 1.33328 -2.27917 -3.67855 1.38823 -2.33927 -3.73256 1.44491 
-2.39978 -3.78429 1.50328 -2.46066 -3.83372 1.56327 -2.52183 -3.88084 1.62484 
-2.58323 -3.92562 1.68793 -2.64481 -3.96807 1.75249 -2.70652 -4.00816 1.81845 
-2.7683 -4.04588 1.88576 -2.83012 -4.08122 1.95434 -2.89193 -4.11416 2.02412 
-2.95371 -4.14471 2.09504 -3.01544 -4.17286 2.16702 -3.07711 -4.19859 2.23997 
-3.1387 -4.22191 2.31381 -3.20022 -4.24283 2.38846 -3.26167 -4.26134 2.46382 
-3.32307 -4.27747 2.53981 -3.38442 -4.29124 2.61634 -3.44574 -4.30269 2.69333 
-3.50706 -4.31187 2.77069 -3.56838 -4.31884 2.84835 -3.62972 -4.32368 2.92622 
-3.69109 -4.3265 3.00427 -3.75252 -4.32741 3.08241 -3.81399 -4.32652 3.16061 
-3.87553 -4.324 3.23883 -3.93714 -4.31997 3.31702 -3.99882 -4.3146 3.39517 
-4.06059 -4.30803 3.47324 -4.12245 -4.30043 3.55121 -4.18442 -4.29193 3.62907 
-4.24651 -4.28268 3.70681 -4.30872 -4.27278 3.78442 -4.37105 -4.26236 3.86189 
-4.4335 -4.25148 3.93924 -4.49605 -4.24023 4.01647 -4.55868 -4.22864 4.0936 
-4.62135 -4.21673 4.17065 -4.68403 -4.2045 4.24765 -4.74666 -4.19192 4.32462 
-4.80918 -4.17895 4.4016 -4.87153 -4.16552 4.47861 -4.93363 -4.15154 4.55568 
-4.9954 -4.13692 4.63285 -5.05674 -4.12155 4.71014 -5.11756 -4.10531 4.78758 
-5.17775 -4.08809 4.86519 -5.2372 -4.06974 4.94298 -5.29576 -4.05011 5.02097 
-5.35332 -4.02906 5.09915 -5.4097 -4.0064 5.1775 -5.46478 -3.98195 5.25599 
-5.51838 -3.95551 5.33457 -5.57034 -3.92689 5.41317 -5.62053 -3.89588 5.49171 
-5.66878 -3.8623 5.57009 -5.71498 -3.82598 5.6482 -5.75901 -3.78678 5.72591 
-5.80079 -3.74461 5.80311 -5.84026 -3.6994 5.87967 -5.87738 -3.65114 5.95548 
-5.91216 -3.59988 6.03046 -5.94462 -3.5457 6.10453 -5.97483 -3.48874 6.17767 
-6.00288 -3.42919 6.24986 -6.0289 -3.36727 6.32114 -6.05305 -3.30323 6.39158 
-6.0755 -3.23737 6.46127 -6.09643 -3.16999 6.53035 -6.11605 -3.10141 6.59898 
-6.13457 -3.03195 6.66734 -6.15217 -2.96193 6.73561 -6.16903 -2.89166 6.80399 
-6.18533 -2.82143 6.87268 -6.20119 -2.7515 6.94184 -6.21672 -2.68211 7.01165 
-6.23198 -2.61346 7.08224 -6.24702 -2.54575 7.15373 -6.26181 -2.4791 7.22622 
-6.27633 -2.41365 7.29979 -6.29047 -2.34948 7.37449 -6.30414 -2.28665 7.45034 
-6.31719 -2.22521 7.52735 -6.32945 -2.16516 7.60552 -6.34073 -2.1065 7.68481 
-6.35084 -2.04921 7.76517 -6.35959 -1.99324 7.84656 -6.36677 -1.93853 7.92888 
-6.37222 -1.88501 8.01205 -6.37576 -1.83259 8.09598 -6.37727 -1.78119 8.18056 
-6.37663 -1.73071 8.26567 -6.37376 -1.68105 8.35122 -6.36862 -1.63211 8.43709 
-6.36119 -1.5838 8.52318 -6.35148 -1.53602 8.60939 -6.33953 -1.4887 8.69562 
-6.32539 -1.44176 8.78179 -6.30913 -1.39514 8.86783 -6.29084 -1.34877 8.95366 
-6.27058 -1.30261 9.03924 -6.24843 -1.25664 9.12451 -6.22448 -1.21083 9.20943 
-6.19878 -1.16517 9.29397 -6.17138 -1.11966 9.37809 -6.14233 -1.07429 9.46177 
-6.11166 -1.02909 9.54497 -6.0794 -0.98406 9.62768 -6.04555 -0.939224 9.70986 
-6.01014 -0.894598 9.79149 -5.97316 -0.850203 9.87256 -5.93463 -0.806061 9.95303 
-5.89455 -0.762192 10.0329 -5.85292 -0.718617 10.1121 -5.80976 -0.675358 10.1907 
-5.76508 -0.632438 10.2686 -5.71888 -0.589882 10.3458 -5.67117 -0.547716 10.4223 
-5.62194 -0.505972 10.498 -5.57119 -0.464687 10.573 -5.5189 -0.4239 10.6471 
-5.46504 -0.383656 10.7204 -5.4096 -0.344002 10.7927 -5.35254 -0.304985 10.864 
-5.29384 -0.266652 10.9344 -5.23348 -0.229046 11.0037 -5.17146 -0.192205 11.0719 
-5.10781 -0.156159 11.139 -5.04255 -0.120932 11.205 -4.97575 -0.0865424 11.2699 
-4.90748 -0.0530022 11.3338 -4.83782 -0.0203216 11.3968 -4.76688 0.0114889 11.4588 
-4.69475 0.0424159 11.5199 -4.62153 0.0724392 11.5803 -4.54729 0.10153 11.6399 
-4.47212 0.129646 11.6989 -4.39605 0.156735 11.7572 -4.31914 0.18273 11.8149 
-4.24141 0.207552 11.8719 -4.16287 0.231113 11.9283 -4.08353 0.253316 11.9841 
-4.00339 0.274064 12.0392 -3.92247 0.293261 12.0936 -3.84077 0.310819 12.1473 
-3.75833 0.326659 12.2004 -3.67516 0.340718 12.2528 -3.59133 0.352951 12.3045 
-3.50688 0.363333 12.3557 -3.42188 0.37186 12.4063 -3.33642 0.378548 12.4564 
-3.25057 0.383434 12.5062 -3.16443 0.386571 12.5557 -3.0781 0.388031 12.605 
-2.99164 0.387895 12.6542 -2.90515 0.386257 12.7035 -2.81869 0.383214 12.7528 
-2.73232 0.378872 12.8023 -2.64607 0.373335 12.8521 -2.55998 0.36671 12.9021 
-2.47406 0.359102 12.9523 -2.38832 0.350614 13.0028 -2.30274 0.341346 13.0535 
-2.21731 0.331392 13.1045 -2.13201 0.320845 13.1556 -2.04682 0.309787 13.2068 
-1.9617 0.298298 13.2581 -1.87664 0.286447 13.3094 -1.7916 0.274297 13.3608 
-1.70658 0.261902 13.4122 -1.62155 0.24931 13.4635 -1.53649 0.236561 13.5147 
-1.45139 0.223688 13.5658 -1.36626 0.210717 13.6168 -1.28108 0.197671 13.6678 
-1.19586 0.184568 13.7186 -1.11059 0.171422 13.7693 -1.02528 0.158246 13.8199 
-0.939942 0.145051 13.8705 -0.854574 0.131844 13.9211 -0.769184 0.118633 13.9716 
-0.683775 0.105423 14.0221 -0.598348 0.0922188 14.0727 -0.512907 0.0790222 14.1233 
-0.42745 0.0658345 14.1739 -0.34198 0.0526558 14.2247 -0.256497 0.0394849 14.2754 
-0.171004 0.0263202 14.3262 -0.0855042 0.0131595 14.377 -1.64233e-06 5.59237e-07 14.4278 

METADATA
INFORMATION 2
NAME L2_NORM_RANGE LOCATION vtkDataArray
DATA 2 2.42818e-07 14.4278 
NAME L2_NORM_FINITE_RANGE LOCATION vtkDataArray
DATA 2 2.42818e-07 14.4278 

LINES 2 237
OFFSETS vtktypeint64
0 237 
CONNECTIVITY vtktypeint64
0 1 2 3 4 5 6 7 8 
9 10 11 12 13 14 15 16 17 
18 19 20 21 22 23 24 25 26 
27 28 29 30 31 32 33 34 35 
36 37 38 39 40 41 42 43 44 
45 46 47 48 49 50 51 52 53 
54 55 56 57 58 59 60 61 62 
63 64 65 66 67 68 69 70 71 
72 73 74 75 76 77 78 79 80 
81 82 83 84 85 86 87 88 89 
90 91 92 93 94 95 96 97 98 
99 100 101 102 103 104 105 106 107 
108 109 110 111 112 113 114 115 116 
117 118 119 120 121 122 123 124 125 
126 127 128 129 130 131 132 133 134 
135 136 137 138 139 140 141 142 143 
144 145 146 147 148 149 150 151 152 
153 154 155 156 157 158 159 160 161 
162 163 164 165 166 167 168 169 170 
171 172 173 174 175 176 177 178 179 
180 181 182 183 184 185 186 187 188 
189 190 191 192 193 194 195 196 197 
198 199 200 201 202 203 204 205 206 
207 208 209 210 211 212 213 214 215 
216 217 218 219 220 221 222 223 224 
225 226 227 228 229 230 231 232 233 
234 235 236 
POINT_DATA 237
TEXTURE_COORDINATES TCoords 2 float
0 0 0.00423729 0 0.00847458 0 0.0127119 0 0.0169492 
0 0.0211864 0 0.0254237 0 0.029661 0 0.0338983 0 
0.0381356 0 0.0423729 0 0.0466102 0 0.0508475 0 0.0550847 
0 0.059322 0 0.0635593 0 0.0677966 0 0.0720339 0 
0.0762712 0 0.0805085 0 0.0847458 0 0.0889831 0 0.0932203 
0 0.0974576 0 0.101695 0 0.105932 0 0.110169 0 
0.114407 0 0.118644 0 0.122881 0 0.127119 0 0.131356 
0 0.135593 0 0.139831 0 0.144068 0 0.148305 0 
0.152542 0 0.15678 0 0.161017 0 0.165254 0 0.169492 
0 0.173729 0 0.177966 0 0.182203 0 0.186441 0 
0.190678 0 0.194915 0 0.199153 0 0.20339 0 0.207627 
0 0.211864 0 0.216102 0 0.220339 0 0.224576 0 
0.228814 0 0.233051 0 0.237288 0 0.241525 0 0.245763 
0 0.25 0 0.254237 0 0.258475 0 0.262712 0 
0.266949 0 0.271186 0 0.275424 0 0.279661 0 0.283898 
0 0.288136 0 0.292373 0 0.29661 0 0.300847 0 
0.305085 0 0.309322 0 0.313559 0 0.317797 0 0.322034 
0 0.326271 0 0.330508 0 0.334746 0 0.338983 0 
0.34322 0 0.347458 0 0.351695 0 0.355932 0 0.36017 
0 0.364407 0 0.368644 0 0.372881 0 0.377119 0 
0.381356 0 0.385593 0 0.38983 0 0.394068 0 0.398305 
0 0.402542 0 0.40678 0 0.411017 0 0.415254 0 
0.419492 0 0.423729 0 0.427966 0 0.432203 0 0.436441 
0 0.440678 0 0.444915 0 0.449153 0 0.45339 0 
0.457627 0 0.461864 0 0.466102 0 0.470339 0 0.474576 
0 0.478814 0 0.483051 0 0.487288 0 0.491525 0 
0.495763 0 0.5 0 0.504237 0 0.508475 0 0.512712 
0 0.516949 0 0.521186 0 0.525424 0 0.529661 0 
0.533898 0 0.538136 0 0.542373 0 0.54661 0 0.550847 
0 0.555085 0 0.559322 0 0.563559 0 0.567797 0 
0.572034 0 0.576271 0 0.580508 0 0.584746 0 0.588983 
0 0.59322 0 0.597458 0 0.601695 0 0.605932 0 
0.610169 0 0.614407 0 0.618644 0 0.622881 0 0.627119 
0 0.631356 0 0.635593 0 0.639831 0 0.644068 0 
0.648305 0 0.652542 0 0.65678 0 0.661017 0 0.665254 
0 0.669492 0 0.673729 0 0.677966 0 0.682203 0 
0.686441 0 0.690678 0 0.694915 0 0.699153 0 0.70339 
0 0.707627 0 0.711864 0 0.716102 0 0.720339 0 
0.724576 0 0.728814 0 0.733051 0 0.737288 0 0.741525 
0 0.745763 0 0.75 0 0.754237 0 0.758475 0 
0.762712 0 0.766949 0 0.771186 0 0.775424 0 0.779661 
0 0.783898 0 0.788136 0 0.792373 0 0.79661 0 
0.800847 0 0.805085 0 0.809322 0 0.813559 0 0.817797 
0 0.822034 0 0.826271 0 0.830508 0 0.834746 0 
0.838983 0 0.84322 0 0.847458 0 0.851695 0 0.855932 
0 0.860169 0 0.864407 0 0.868644 0 0.872881 0 
0.877119 0 0.881356 0 0.885593 0 0.889831 0 0.894068 
0 0.898305 0 0.902542 0 0.90678 0 0.911017 0 
0.915254 0 0.919492 0 0.923729 0 0.927966 0 0.932203 
0 0.936441 0 0.940678 0 0.944915 0 0.949153 0 
0.95339 0 0.957627 0 0.961864 0 0.966102 0 0.970339 
0 0.974576 0 0.978814 0 0.983051 0 0.987288 0 
0.991525 0 0.995763 0 1 0 
METADATA
INFORMATION 2
NAME L2_NORM_RANGE LOCATION vtkDataArray
DATA 2 0 1 
NAME L2_NORM_FINITE_RANGE LOCATION vtkDataArray
DATA 2 0 1 

FIELD FieldData 3
MaximumInscribedSphereRadius 1 237 double
1.8693812456 1.8701959842 1.8710107228 1.8710013964 1.870870701 1.870660391 1.8703438538 1.8699919747 1.8693958274 
1.8688076694 1.8679481538 1.8669277605 1.8656712481 1.8638768724 1.8620391843 1.8595044384 1.8574593244 1.8545457963 
1.8516527645 1.848345709 1.8454503881 1.8422705952 1.8391344159 1.8363341668 1.83377638 1.8321972618 1.8315305329 
1.830089947 1.8289923627 1.830656262 1.8291651994 1.8279455839 1.8274194938 1.8257674797 1.8269664559 1.8284195833 
1.8270940525 1.8256048404 1.8241156284 1.821672269 1.8181184106 1.8123606457 1.8065553308 1.7977730801 1.7892781966 
1.7783348035 1.7710183835 1.7630802396 1.7530129733 1.7440645117 1.7338197755 1.727293443 1.7212897492 1.7108134186 
1.7050941437 1.7006210767 1.6967702431 1.6900038194 1.683331999 1.6766299994 1.6699508398 1.6649018665 1.6590513616 
1.6543118244 1.6482037913 1.6449494593 1.6401692733 1.6320863962 1.6214393934 1.6116271134 1.6036837974 1.5964758705 
1.5903066308 1.5806435476 1.5713604361 1.5642179786 1.5574059872 1.5519798735 1.5465537598 1.5432265368 1.5417183467 
1.5405242071 1.5428375961 1.547263579 1.5523482038 1.5579739555 1.5676516567 1.5778029437 1.5882432075 1.6026592122 
1.6167550786 1.6317916506 1.6504365474 1.6686375479 1.6863398511 1.7032135245 1.7210109339 1.7388604335 1.7552953207 
1.770752334 1.794745212 1.8182605836 1.8344382364 1.8476246261 1.8606723706 1.8711721188 1.8790337714 1.8829160176 
1.8851171504 1.8747342563 1.8634423703 1.8521504843 1.8359250703 1.8102787713 1.7841096304 1.756442515 1.7287753995 
1.6978669129 1.6652234551 1.6331279236 1.6040254665 1.5753707359 1.5478014189 1.5215189359 1.501368115 1.4826455323 
1.4639229495 1.4475175362 1.4326781077 1.4211801035 1.4124908553 1.4050503657 1.3999403086 1.3951597981 1.3904761093 
1.3857924205 1.3813329488 1.3816615649 1.3819901811 1.3832633952 1.3827696802 1.3821379188 1.3806496227 1.3791605174 
1.3782014311 1.3770298891 1.3764635984 1.3751754879 1.3706210487 1.3660666096 1.3643207226 1.3638620289 1.3637816426 
1.364345905 1.3656158388 1.3663658237 1.367656078 1.3690393623 1.3704003158 1.369276 1.3692543389 1.3723556304 
1.3754569218 1.3817513515 1.3844219322 1.3871020652 1.3932158821 1.3982665697 1.4047066669 1.412853221 1.4209997751 
1.431652923 1.4390048401 1.4456786572 1.4542319776 1.4653302393 1.471591686 1.4747885448 1.4823879844 1.4917992507 
1.5015063567 1.5113138453 1.5210470401 1.5307802349 1.5408343631 1.5542446188 1.5676548745 1.5816204336 1.5926950286 
1.6036444438 1.6153229161 1.6267523316 1.6359580061 1.6440201762 1.6520509315 1.6590741481 1.6650739097 1.6726894239 
1.6783376079 1.6840583618 1.6908094178 1.6971118293 1.7031997077 1.7090513517 1.7160665514 1.724372761 1.7326234169 
1.7402648627 1.7454194167 1.7502493473 1.7541408207 1.7581979314 1.7618906627 1.7655538053 1.7690343862 1.7723550791 
1.7755242995 1.7782204568 1.7809030149 1.7829431877 1.7849833605 1.7864946559 1.787871078 1.7889477689 1.7897940149 
1.7905274216 1.7909984594 1.7914671166 1.7917081826 1.7919492487 1.7920769723 1.7921558239 1.7922105716 1.7922469475 
1.7922596862 1.7914441401 1.7906285668 
METADATA
INFORMATION 0

EdgeArray 2 237 int
19026 19026 18927 18927 18828 18828 18610 18610 18645 
18645 18615 18615 18532 18532 18455 18445 18374 18363 
18436 18335 18229 18229 18111 18111 18035 18000 18072 
17895 17878 17875 17792 17864 17672 17873 17658 17561 
17624 17461 17470 17470 17355 17469 17277 17336 17176 
17076 17066 16839 17073 17073 17012 17012 16915 16915 
16877 16806 11833 11833 1668 1668 8814 8247 5880 
5880 10534 10534 3028 3023 7664 7369 11430 11258 
8603 8603 7216 7216 5830 5830 7487 7487 8455 
8457 7990 7990 8776 6208 8622 7169 7181 8636 
5088 5941 5090 8606 7230 8397 9266 11018 10821 
11016 3400 5366 2430 7935 10672 10672 11699 11699 
3483 3483 3168 3168 10424 10424 9296 9296 9297 
9297 8265 8265 3948 3948 10805 10460 5153 5153 
8660 8660 8657 8989 10343 9820 5290 4923 10799 
10802 10067 9258 8027 4956 865 6130 1124 3180 
3223 1430 5682 8264 8884 2864 10146 8164 4689 
5070 3667 6014 2645 6958 10571 11549 9837 9638 
6716 6061 5560 646 6734 7445 9956 10288 12799 
12798 12803 12803 9716 12801 7506 11918 3847 4475 
4851 4851 7441 6611 12395 7753 2596 7019 777 
3071 777 4946 1108 9410 5383 10443 8866 8886 
8882 8883 8440 7407 2950 8823 292 4730 633 
2599 1127 1788 2936 4333 6105 9438 6415 6415 
9634 6415 11269 9781 11272 10417 11276 11053 2154 
2079 3883 3025 5058 10047 2780 5426 503 805 
10191 10191 8079 5717 6502 7729 8661 10275 10282 
4684 10274 4589 5577 6201 6273 7571 8224 8885 
10176 10199 6315 3672 4545 3557 4544 5845 6080 
7863 6850 5552 2876 2635 2681 2681 3596 3596 
4511 4511 4777 4777 7097 7097 9417 9417 9365 
9365 6769 6769 2893 2893 7019 4504 11038 6518 
9437 9568 10946 11281 12216 12590 7355 7660 5451 
6342 3546 5024 4253 2879 8365 2878 8020 2298 
5820 1438 10695 2947 11471 5328 9197 2947 7526 
6486 4200 6616 4354 1327 12479 512 7611 1220 
2744 1928 3526 3526 2007 2007 511 511 7317 
7317 4258 5998 10931 6052 10930 8389 10930 10726 
10934 6635 10367 8429 9705 5470 7522 3595 3290 
3290 3297 3297 5603 2278 6320 3226 6320 4965 
5941 5744 5373 5721 4475 5719 3576 5716 1473 
1496 3525 3987 5576 6479 6646 11354 6213 9828 
6922 7713 4010 2266 9661 9019 10939 10939 8791 
8791 9657 7124 8285 7599 6880 6880 10160 10160 
11411 2923 11018 10716 7612 11538 11720 7250 11067 
11005 9362 9364 10643 6104 11475 1681 8058 8058 
11703 11703 13151 13151 13073 13185 13348 8393 13291 
1873 13620 13619 13669 13669 13794 10426 13732 12165 
14007 14023 14096 14178 13692 13692 14083 14083 14474 
14474 14595 14595 14646 14646 14829 14865 14873 14974 
15054 15054 15099 15099 15145 15145 15245 15245 15345 
15345 15518 15529 15501 15529 14747 15020 14298 15306 
15783 15792 15691 15994 15901 15901 
METADATA
INFORMATION 2
NAME L2_NORM_RANGE LOCATION vtkDataArray
DATA 2 722.663 26906.8 
NAME L2_NORM_FINITE_RANGE LOCATION vtkDataArray
DATA 2 722.663 26906.8 

EdgePCoordArray 1 237 double
0 0 0 0 0 0 0 0.014622277006 0.29270357665 
0.77685636337 0 0 0.11893387936 0.59903570024 0.30162338641 0.012209694291 0.033918616438 0.67663497407 
0.79373535272 0 0.018935296466 0.0098104691035 0.28710585827 0.35146322871 0.016961239262 0 0 
0.74680561028 0 0 0.27635618464 0 0 0.0099351562531 0.54342893409 0.31579061989 
0 0 0 0 0.70630722817 0 0.3875121168 0.60325604044 0.81594644479 
0.025918473138 0.14280947263 0.061977002603 0.65507812546 0.95411182857 0.30772416279 0.69015054451 0 0 
0 0 0 0 0 0 0 0.020849569748 0 
0.00036816802863 0.090479114599 0.57833539364 0.60553425072 0.89418020258 0.57653295333 0.18714993256 0.68753387554 0.26855812529 
0.22201116789 0.26466784836 0.426626624 0.14042993017 0.0027251480743 0.016773493959 0.030821839843 0.7252602921 0.62337916698 
0.35194654733 0.85341959152 0.75655631137 0.78813856498 0.73005138034 0.0005207573617 0.15616754586 0.26903136818 0.038280683933 
0 0.14047559678 0.78562304402 0.73294455395 0.69302504179 0.39423934528 0.47910983043 0.76019686277 0.58218628203 
0.043506419676 0.44700306832 0.27567898427 0.57607189058 0.47024537334 0.15815220478 0.0013410006084 0.0032003994421 0 
0.5739077657 0.47988749654 0.27591425815 0.071941019753 0.0058970160103 0.066744909892 0.082128397428 0.043550365316 0.0049723332047 
0 0.14653716149 0.27089864698 0.23651819211 0.76840488121 0.51596473218 0.49244366736 0.50621889601 0.52868149002 
0.55114408403 0.38485037198 0.56967657513 0.52124144987 0.48595276121 0.62165549761 0.11504374564 0 0 
0 0 0 0 0 0 0 0.37530415936 0.67432256668 
0.094380717043 0.24082758928 0.51936869486 0.16571474791 0.48436847724 0.80302220657 0.56003061696 0.61620596133 0.58435403645 
0.47413087223 0.4129119252 0.41164825989 0.58083803274 0.90335207786 0.7290757433 0.16748158529 0.6619571442 0.35352118704 
0.04508522988 0 0 0 0 0.44995804078 0.30925554139 0.22230344856 0.13535135574 
0.84860711271 0.24814026241 0.54242667901 0.50296645708 0 0 0.36611922573 0.58010222285 0.71771575235 
0.81721672112 0.0019031965249 0.006801999528 0.011700802531 0.0037994659342 0.078428408631 0.15305735133 0.78269897599 0.63737062232 
0.2818154252 0.81814139267 0.28376810467 0 0 0.47593595085 0.12894284887 0 0 
0.13367321867 0.2325352068 0.53233717638 0.37605068862 0.16277993791 0.70767032335 0.75522239313 0.87505936866 0 
0 0 0.34919658635 0.064920171918 0.14960582207 0.012582791045 0.031152849638 0.75087914479 0.32385573478 
0.00042675707249 0.0022351771716 0 0 0 0 0 0.00099724157566 0.0027650203681 
0 0 0 0 0 0.089035862926 0.21647918677 0.0012832587319 0.0047385017903 
0.013524013281 0.50676178101 0 
METADATA
INFORMATION 0

